 vasp.6.4.2 20Jul23 (build Mar 06 2024 09:06:46) complex                        
  
 executed on             LinuxIFC date 2024.03.07  11:39:32
 running   20 mpi-ranks, on    1 nodes
 distrk:  each k-point on   20 cores,    1 groups
 distr:  one band on NCORE=  10 cores,    2 groups


--------------------------------------------------------------------------------------------------------


 INCAR:
   SYSTEM = Au_FRESH_TRAIN	
   ISMEAR = 0 		
   SIGMA = 0.05           	
   IVDW = 12
   ENCUT = 450
   PREC = Accurate 	
   LASPH = TRUE 		
   NELM = 400
   NELMIN = 5
   EDIFF = 1E-6
   IBRION = 0
   ISIF = 3
   NSW = 0
   EDIFFG = -0.01
   ALGO = Fast
   LREAL = Auto
   LWAVE = False
   LCHARG = False
   AMIN = 0.01
   ADDGRID = TRUE
   NCORE = 10

 POTCAR:    PAW_PBE Au 04Oct2007                  
 -----------------------------------------------------------------------------
|                                                                             |
|           W    W    AA    RRRRR   N    N  II  N    N   GGGG   !!!           |
|           W    W   A  A   R    R  NN   N  II  NN   N  G    G  !!!           |
|           W    W  A    A  R    R  N N  N  II  N N  N  G       !!!           |
|           W WW W  AAAAAA  RRRRR   N  N N  II  N  N N  G  GGG   !            |
|           WW  WW  A    A  R   R   N   NN  II  N   NN  G    G                |
|           W    W  A    A  R    R  N    N  II  N    N   GGGG   !!!           |
|                                                                             |
|     For optimal performance we recommend to set                             |
|       NCORE = 2 up to number-of-cores-per-socket                            |
|     NCORE specifies how many cores store one orbital (NPAR=cpu/NCORE).      |
|     This setting can greatly improve the performance of VASP for DFT.       |
|     The default, NCORE=1 might be grossly inefficient on modern             |
|     multi-core architectures or massively parallel machines. Do your        |
|     own testing! More info at https://www.vasp.at/wiki/index.php/NCORE      |
|     Unfortunately you need to use the default for GW and RPA                |
|     calculations (for HF NCORE is supported but not extensively tested      |
|     yet).                                                                   |
|                                                                             |
 -----------------------------------------------------------------------------

 POTCAR:    PAW_PBE Au 04Oct2007                  
   VRHFIN =Au: s1d10                                                                                
   LEXCH  = PE                                                                                      
   EATOM  =   926.0867 eV,   68.0654 Ry                                                             
                                                                                                    
   TITEL  = PAW_PBE Au 04Oct2007                                                                    
   LULTRA =        F    use ultrasoft PP ?                                                          
   IUNSCR =        1    unscreen: 0-lin 1-nonlin 2-no                                               
   RPACOR =    2.330    partial core radius                                                         
   POMASS =  196.966; ZVAL   =   11.000    mass and valenz                                          
   RCORE  =    2.500    outmost cutoff radius                                                       
   RWIGS  =    2.840; RWIGS  =    1.503    wigner-seitz radius (au A)                               
   ENMAX  =  229.943; ENMIN  =  172.457 eV                                                          
   ICORE  =        3    local potential                                                             
   LCOR   =        T    correct aug charges                                                         
   LPAW   =        T    paw PP                                                                      
   EAUG   =  356.670                                                                                
   DEXC   =    0.000                                                                                
   RMAX   =    2.562    core radius for proj-oper                                                   
   RAUG   =    1.300    factor for augmentation sphere                                              
   RDEP   =    2.598    radius for radial grids                                                     
   RDEPT  =    2.193    core radius for aug-charge                                                  
                                                                                                    
   Atomic configuration                                                                             
   16 entries                                                                                       
     n  l   j            E        occ.                                                              
     1  0  0.50    -80748.5001   2.0000                                                             
     2  0  0.50    -14244.7466   2.0000                                                             
     2  1  1.50    -12310.9591   6.0000                                                             
     3  0  0.50     -3362.1768   2.0000                                                             
     3  1  1.50     -2801.5463   6.0000                                                             
     3  2  2.50     -2203.8206  10.0000                                                             
     4  0  0.50      -729.8168   2.0000                                                             
     4  1  1.50      -546.0527   6.0000                                                             
     4  2  2.50      -325.7302  10.0000                                                             
     4  3  3.50       -81.1472  14.0000                                                             
     5  0  0.50      -108.3201   2.0000                                                             
     5  1  1.50       -59.7479   6.0000                                                             
     5  2  2.50        -6.8783  10.0000                                                             
     6  0  0.50        -5.7602   1.0000                                                             
     6  1  1.50        -6.8029   0.0000                                                             
     5  3  2.50        -1.3606   0.0000                                                             
   Description                                                                                      
     l       E           TYP  RCUT    TYP  RCUT                                                     
     2     -6.8782861     23  2.500                                                                 
     2     -8.2388687     23  2.500                                                                 
     0     -5.7601759     23  2.500                                                                 
     0     -0.8493231     23  2.500                                                                 
     1     -2.7211652     23  2.500                                                                 
     1     27.2116520     23  2.500                                                                 
     3     -1.3605826     23  2.500                                                                 
  local pseudopotential read in
  partial core-charges read in
  partial kinetic energy density read in
  atomic valenz-charges read in
  non local Contribution for L=           2  read in
    real space projection operators read in
  non local Contribution for L=           2  read in
    real space projection operators read in
  non local Contribution for L=           0  read in
    real space projection operators read in
  non local Contribution for L=           0  read in
    real space projection operators read in
  non local Contribution for L=           1  read in
    real space projection operators read in
  non local Contribution for L=           1  read in
    real space projection operators read in
    PAW grid and wavefunctions read in
 
   number of l-projection  operators is LMAX  =           6
   number of lm-projection operators is LMMAX =          18
 
 Optimization of the real space projectors (new method)

 maximal supplied QI-value         = 15.12
 optimisation between [QCUT,QGAM] = [ 10.73, 21.62] = [ 32.26,130.87] Ry 
 Optimized for a Real-space Cutoff    1.51 Angstroem

   l    n(q)    QCUT    max X(q) W(low)/X(q) W(high)/X(q)  e(spline) 
   2      9    10.734    60.898    0.91E-04    0.24E-03    0.27E-06
   2      9    10.734    58.894    0.92E-04    0.24E-03    0.27E-06
   0     10    10.734   109.617    0.32E-04    0.87E-04    0.14E-06
   0     10    10.734    75.026    0.29E-04    0.84E-04    0.14E-06
   1      9    10.734    16.344    0.16E-03    0.95E-04    0.12E-06
   1      9    10.734    10.160    0.13E-03    0.80E-04    0.97E-07
  PAW_PBE Au 04Oct2007                  :
 energy of atom  1       EATOM= -926.0867
 kinetic energy error for atom=    0.0057 (will be added to EATOM!!)
 
 
 POSCAR: System 1159
  positions in cartesian coordinates
  No initial velocities read in
 exchange correlation table for  LEXCH =        8
   RHO(1)=    0.500       N(1)  =     2000
   RHO(2)=  100.500       N(2)  =     4000

 VTST: version 4.1, (05/19/21)

 CHAIN: initializing optimizer
 
 OPT: Using VASP Dynamics algorithm
 CHAIN: Read ICHAIN            0
 
 POSCAR: System 1159
  positions in cartesian coordinates
  No initial velocities read in
 


--------------------------------------------------------------------------------------------------------


 ion  position               nearest neighbor table
   1  0.010  0.059  0.117-  76 2.67  26 2.78  11 2.79  10 2.85   3 2.87  83 2.94  75 2.95   2 2.99
                           100 3.00  34 3.00   4 3.01  28 3.11
   2  0.000  0.222  0.294-  76 2.80   8 2.83  80 2.89   5 2.89  13 2.90  17 2.93  87 2.96   1 2.99
                            75 3.02   3 3.11  15 3.12   4 3.19
   3  0.186  0.054  0.269-   4 2.75  37 2.79  28 2.79  26 2.80  38 2.87   1 2.87   8 2.92  41 2.92
                            32 3.07   5 3.10   2 3.11  62 3.14
   4  0.192  0.221  0.122-  23 2.72   3 2.75  37 2.77  49 2.77  46 2.82  38 2.88  15 3.00   1 3.01
                            11 3.07  13 3.15   2 3.19  10 3.20
   5  0.005  0.042  0.442-  26 2.66  32 2.78  79 2.87   2 2.89  75 2.91  80 2.95   8 2.97  30 2.99
                             6 3.03   7 3.05 104 3.05   3 3.10
   6  0.005  0.211  0.619-  79 2.71  21 2.77  84 2.82  91 2.84   9 2.92  80 2.94  12 2.95  17 3.00
                             8 3.03   7 3.03   5 3.03  19 3.07
   7  0.179  0.038  0.616-  32 2.73   9 2.75  36 2.85  45 2.89  30 2.89  66 2.90  42 3.00  12 3.00
                            41 3.01   6 3.03   5 3.05   8 3.05
   8  0.174  0.213  0.443-   2 2.83  17 2.86  38 2.89  53 2.90  42 2.91  15 2.92   3 2.92  19 2.97
                             5 2.97  41 2.99   6 3.03   7 3.05
   9  0.033  0.044  0.783-  36 2.74   7 2.75  11 2.77  34 2.86  79 2.88  30 2.88 108 2.88  12 2.92
                             6 2.92  10 2.97  83 3.05  84 3.12
  10  0.002  0.215  0.948-  23 2.67  84 2.80   1 2.85  95 2.85  83 2.88  76 2.89  21 2.93   9 2.97
                            11 3.04  13 3.14  12 3.16   4 3.20
  11  0.169  0.035  0.960-  34 2.72  28 2.77   9 2.77   1 2.79  37 2.84  36 2.94  70 2.95  45 2.98
                            10 3.04  46 3.06   4 3.07  12 3.30
  12  0.186  0.223  0.773-  57 2.72  21 2.78  19 2.80  42 2.82  45 2.86  46 2.87   9 2.92  23 2.92
                             6 2.95   7 3.00  10 3.16  11 3.30
  13  0.003  0.390  0.131-  88 2.78  16 2.78  14 2.80  23 2.89   2 2.90  87 2.95  76 2.97  95 2.98
                            15 3.01  22 3.02  10 3.14   4 3.15
  14  0.009  0.551  0.289-  13 2.80  88 2.83  16 2.84  29 2.88  99 2.88  20 2.89  17 2.90  87 2.92
                            27 2.92  15 2.93  25 3.02  92 3.17
  15  0.186  0.393  0.291-  20 2.72  16 2.75  50 2.78  17 2.86  53 2.87  49 2.92   8 2.92  14 2.93
                             4 3.00  38 3.01  13 3.01   2 3.12
  16  0.170  0.540  0.126-  15 2.75  13 2.78  14 2.84  58 2.86  27 2.88  22 2.91  25 2.94  61 2.94
                            50 3.00  23 3.01  49 3.03  35 3.18
  17  0.026  0.390  0.458-  19 2.74  20 2.75   8 2.86  15 2.86  14 2.90  18 2.92  91 2.92   2 2.93
                             6 3.00  87 3.11  92 3.13  80 3.30
  18  0.008  0.563  0.617-  33 2.60 103 2.75  29 2.76  31 2.81  96 2.87  24 2.87  17 2.92  20 3.02
                            92 3.04  21 3.06  19 3.13  91 3.15
  19  0.184  0.382  0.612-  17 2.74  24 2.74  12 2.80  42 2.83  54 2.83  21 2.86  53 2.90  20 2.91
                            57 2.94   8 2.97   6 3.07  18 3.13
  20  0.182  0.548  0.446-  15 2.72  17 2.75  31 2.86  65 2.88  50 2.89  14 2.89  19 2.91  27 2.92
                            54 2.95  18 3.02  53 3.09  29 3.16
  21  0.018  0.372  0.773-   6 2.77  12 2.78  24 2.83  19 2.86  84 2.87  23 2.90  10 2.93  91 3.02
                            96 3.04  18 3.06  22 3.10  95 3.12
  22  0.017  0.550  0.948- 107 2.85  96 2.86  33 2.87  35 2.88  23 2.89  16 2.91  24 2.97  25 2.99
                            95 3.01  13 3.02  88 3.07  21 3.10
  23  0.158  0.363  0.960-  10 2.67   4 2.72  13 2.89  46 2.89  22 2.89  21 2.90  12 2.92  58 2.95
                            16 3.01  57 3.07  24 3.17  49 3.18
  24  0.178  0.535  0.772-  69 2.69  19 2.74  54 2.77  57 2.78  58 2.82  21 2.83  33 2.86  18 2.87
                            22 2.97  23 3.17  35 3.20  31 3.20
  25  0.019  0.722  0.116- 100 2.80 107 2.80  35 2.82  27 2.85  34 2.90  28 2.90  16 2.94  99 2.96
                            22 2.99  88 3.00  26 3.01  14 3.02
  26  0.018  0.903  0.278-   5 2.66 100 2.75   1 2.78   3 2.80  75 2.83  28 2.88  32 2.89  25 3.01
                            27 3.08  99 3.18  29 3.23 104 3.25
  27  0.180  0.714  0.280-  61 2.75  25 2.85  28 2.85  16 2.88  20 2.92  14 2.92  50 2.98  62 3.00
                            65 3.04  32 3.07  26 3.08  29 3.22
  28  0.190  0.883  0.123-  70 2.71  11 2.77  61 2.79   3 2.79  27 2.85  37 2.87  26 2.88  62 2.90
                            25 2.90  35 2.95  34 3.11   1 3.11
  29  0.987  0.713  0.454-  18 2.76 104 2.79  99 2.81 103 2.82  31 2.84  14 2.88  30 2.93  92 2.99
                            20 3.16  32 3.16  27 3.22  26 3.23
  30  0.007  0.880  0.621- 108 2.66  79 2.70  31 2.79   9 2.88   7 2.89  32 2.91  33 2.92  29 2.93
                            36 2.95   5 2.99 104 3.02 103 3.08
  31  0.168  0.724  0.596-  32 2.71  30 2.79  65 2.79  18 2.81  66 2.84  29 2.84  20 2.86  33 2.90
                            36 3.01  69 3.07  54 3.11  24 3.20
  32  0.171  0.890  0.454-  31 2.71   7 2.73   5 2.78  66 2.85  41 2.89  26 2.89  30 2.91  27 3.07
                             3 3.07  65 3.09  29 3.16  62 3.22
  33  0.019  0.702  0.774-  18 2.60  96 2.78  24 2.86  22 2.87  35 2.87  31 2.90  30 2.92 108 2.93
                            36 2.97 103 2.98 107 3.08  34 3.14
  34  0.009  0.885  0.949-  11 2.72 108 2.73  83 2.75  35 2.84 107 2.86   9 2.86  25 2.90  36 2.98
                           100 2.98   1 3.00  28 3.11  33 3.14
  35  0.171  0.724  0.948-  70 2.78  69 2.82  25 2.82  36 2.82  34 2.84  33 2.87  22 2.88  58 2.94
                            28 2.95  61 2.98  16 3.18  24 3.20
  36  0.181  0.879  0.782-   9 2.74  35 2.82  45 2.83   7 2.85  69 2.90  11 2.94  30 2.95  33 2.97
                            34 2.98  66 2.98  31 3.01  70 3.03
  37  0.343  0.056  0.108-  47 2.74   4 2.77   3 2.79  40 2.80  46 2.80  11 2.84  28 2.87  70 2.90
                            38 3.02  64 3.12  62 3.12  39 3.28
  38  0.351  0.215  0.292-  53 2.70  41 2.82  49 2.87   3 2.87   4 2.88   8 2.89  40 2.94  44 2.98
                            39 3.01  15 3.01  37 3.02  51 3.16
  39  0.520  0.041  0.304-  41 2.74  44 2.78  98 2.80  77 2.82  62 2.86  68 2.97  74 2.97  73 2.99
                            38 3.01  40 3.03  37 3.28  64 3.39
  40  0.515  0.202  0.120-  37 2.80  74 2.81  59 2.87  73 2.87  47 2.94  38 2.94  49 2.95  85 3.02
                            51 3.03  39 3.03  46 3.07  82 3.08
  41  0.347  0.044  0.441-  39 2.74  38 2.82  32 2.89  62 2.92   3 2.92  66 2.94  44 2.97  42 2.97
                             8 2.99   7 3.01  68 3.14  43 3.16
  42  0.342  0.217  0.606-  53 2.68  55 2.82  12 2.82  19 2.83   8 2.91  44 2.92  41 2.97  43 3.00
                             7 3.00  57 3.06  45 3.08  48 3.15
  43  0.506  0.043  0.639-  81 2.74  45 2.80  48 2.82  72 2.87  78 2.90  66 2.96  42 3.00  44 3.02
                            68 3.02  77 3.13 102 3.15  41 3.16
  44  0.525  0.204  0.458-  78 2.72  77 2.77  39 2.78  89 2.91  42 2.92  53 2.93  41 2.97  38 2.98
                            43 3.02  74 3.02  55 3.02  51 3.22
  45  0.336  0.048  0.788-  43 2.80  36 2.83  12 2.86  48 2.86  46 2.87   7 2.89  47 2.91  72 2.94
                            11 2.98  42 3.08  70 3.13  66 3.16
  46  0.338  0.215  0.948-  59 2.76  48 2.78  37 2.80  57 2.81   4 2.82  12 2.87  45 2.87  23 2.89
                            49 2.99  47 3.03  11 3.06  40 3.07
  47  0.501  0.033  0.955-  64 2.71  37 2.74  70 2.84  48 2.85  45 2.91  72 2.94  40 2.94  81 2.96
                            73 3.02  46 3.03 106 3.04  82 3.18
  48  0.506  0.204  0.800-  59 2.68  46 2.78  43 2.82  47 2.85  45 2.86  81 2.96  57 3.00  78 3.06
                            82 3.07  42 3.15  55 3.19  93 3.27
  49  0.352  0.377  0.126-   4 2.77  52 2.82  38 2.87  50 2.89  15 2.92  59 2.92  40 2.95  51 2.96
                            58 2.99  46 2.99  16 3.03  23 3.18
  50  0.351  0.546  0.287-  63 2.77  15 2.78  20 2.89  49 2.89  56 2.90  61 2.90  52 2.96  65 2.97
                            27 2.98  16 3.00  53 3.02  51 3.02
  51  0.538  0.389  0.277-  86 2.73  52 2.75  56 2.78  74 2.80  85 2.84  89 2.93  49 2.96  50 3.02
                            40 3.03  38 3.16  53 3.16  44 3.22
  52  0.514  0.536  0.112-  51 2.75  63 2.81  49 2.82  85 2.91  94 2.92  86 2.92  71 2.96  50 2.96
                            59 2.98  97 3.06  61 3.10  58 3.14
  53  0.352  0.365  0.450-  42 2.68  38 2.70  55 2.75  15 2.87  19 2.90  56 2.90   8 2.90  44 2.93
                            50 3.02  54 3.09  20 3.09  51 3.16
  54  0.343  0.546  0.621-  69 2.73  55 2.75  24 2.77  19 2.83  60 2.86  65 2.88  67 2.89  20 2.95
                            57 2.96  56 3.05  53 3.09  31 3.11
  55  0.496  0.385  0.618-  54 2.75  53 2.75  56 2.78  90 2.78  42 2.82  57 2.90  60 2.96  89 3.00
                            44 3.02  93 3.11  78 3.14  48 3.19
  56  0.518  0.531  0.449-  89 2.77  55 2.78 101 2.78  51 2.78  90 2.82  50 2.90  53 2.90  86 2.96
                            54 3.05  63 3.05  67 3.07  65 3.10
  57  0.339  0.380  0.792-  12 2.72  24 2.78  58 2.79  60 2.80  46 2.81  59 2.89  55 2.90  19 2.94
                            54 2.96  48 3.00  42 3.06  23 3.07
  58  0.319  0.538  0.950-  57 2.79  24 2.82  69 2.84  16 2.86  60 2.89  35 2.94  23 2.95  49 2.99
                            61 3.03  71 3.13  52 3.14  59 3.23
  59  0.509  0.359  0.950-  48 2.68  46 2.76  40 2.87  57 2.89  85 2.90  49 2.92  52 2.98  60 3.00
                            82 3.11  94 3.12  58 3.23  93 3.25
  60  0.494  0.545  0.796-  71 2.78  69 2.78  57 2.80  94 2.83  54 2.86  58 2.89  90 2.96  55 2.96
                            59 3.00  67 3.04 105 3.07  93 3.22
  61  0.336  0.711  0.122-  27 2.75  70 2.76  28 2.79  62 2.82  63 2.87  64 2.88  50 2.90  16 2.94
                            35 2.98  71 3.01  58 3.03  52 3.10
  62  0.363  0.873  0.279-  61 2.82  63 2.85  39 2.86  28 2.90  64 2.91  41 2.92  65 2.99  27 3.00
                            37 3.12  68 3.12   3 3.14  32 3.22
  63  0.513  0.699  0.270-  86 2.74  50 2.77  52 2.81  98 2.83  62 2.85 101 2.87  61 2.87  64 3.00
                            56 3.05  97 3.05  65 3.13  68 3.25
  64  0.508  0.866  0.095-  70 2.60  71 2.66  47 2.71  61 2.88 106 2.91  62 2.91  98 2.98  63 3.00
                            73 3.01  97 3.05  37 3.12  39 3.39
  65  0.347  0.712  0.459-  66 2.67  67 2.79  31 2.79  54 2.88  20 2.88  68 2.96  50 2.97  62 2.99
                            27 3.04  32 3.09  56 3.10  63 3.13
  66  0.344  0.871  0.604-  65 2.67  67 2.82  68 2.82  31 2.84  32 2.85   7 2.90  72 2.91  41 2.94
                            43 2.96  36 2.98  69 3.13  45 3.16
  67  0.507  0.713  0.617-  68 2.67  65 2.79  66 2.82 102 2.83  72 2.85  54 2.89  90 2.90 105 2.93
                           101 2.99  60 3.04  69 3.05  56 3.07
  68  0.528  0.869  0.470-  67 2.67 102 2.69 101 2.79  66 2.82  77 2.93  98 2.95  65 2.96  39 2.97
                            43 3.02  62 3.12  41 3.14  63 3.25
  69  0.326  0.695  0.783-  24 2.69  54 2.73  60 2.78  35 2.82  58 2.84  36 2.90  72 2.93  71 3.02
                            67 3.05  31 3.07  66 3.13  70 3.14
  70  0.341  0.869  0.966-  64 2.60  28 2.71  61 2.76  35 2.78  47 2.84  71 2.84  72 2.88  37 2.90
                            11 2.95  36 3.03  45 3.13  69 3.14
  71  0.505  0.709  0.948-  64 2.66  60 2.78  72 2.79 105 2.82  70 2.84  94 2.85  52 2.96  61 3.01
                            69 3.02  97 3.03 106 3.06  58 3.13
  72  0.489  0.866  0.788-  71 2.79 105 2.84  67 2.85  43 2.87  70 2.88  66 2.91  69 2.93  47 2.94
                            45 2.94  81 3.02 102 3.15 106 3.15
  73  0.678  0.037  0.122-  75 2.76  98 2.82  40 2.87  82 2.88  74 2.90 100 2.95 106 2.97  76 2.97
                            39 2.99  64 3.01  47 3.02  83 3.05
  74  0.682  0.215  0.273-  76 2.78  51 2.80  40 2.81  75 2.87  73 2.90  85 2.91  87 2.91  80 2.94
                            39 2.97  44 3.02  89 3.11  77 3.14
  75  0.836  0.043  0.279- 100 2.76  73 2.76  76 2.77  26 2.83  74 2.87   5 2.91  77 2.94   1 2.95
                            80 2.98  98 3.01   2 3.02 104 3.05
  76  0.851  0.204  0.126-   1 2.67  75 2.77  74 2.78   2 2.80  82 2.84  10 2.89  85 2.96  73 2.97
                            13 2.97  83 3.03  95 3.07  87 3.18
  77  0.684  0.046  0.461-  80 2.70  44 2.77  78 2.78 104 2.79  39 2.82  68 2.93  75 2.94  79 3.01
                           102 3.06  43 3.13  74 3.14  98 3.18
  78  0.674  0.205  0.619-  44 2.72  77 2.78  80 2.82  89 2.89  43 2.90  93 2.91  91 2.93  84 2.96
                            81 3.00  48 3.06  79 3.07  55 3.14
  79  0.863  0.044  0.625-  30 2.70   6 2.71 108 2.79   5 2.87   9 2.88  84 2.90  80 2.93  77 3.01
                           104 3.02  78 3.07  81 3.13 102 3.20
  80  0.833  0.206  0.455-  77 2.70  91 2.77  78 2.82  89 2.84   2 2.89  79 2.93  74 2.94   6 2.94
                             5 2.95  75 2.98  87 3.04  17 3.30
  81  0.670  0.030  0.787-  43 2.74 106 2.76  82 2.94 102 2.94  47 2.96  83 2.96  48 2.96  78 3.00
                            72 3.02 108 3.03  79 3.13  84 3.17
  82  0.700  0.196  0.954-  83 2.68  84 2.81  76 2.84  73 2.88  95 2.89  85 2.90  81 2.94  48 3.07
                            40 3.08  59 3.11  47 3.18  93 3.27
  83  0.849  0.039  0.945-  82 2.68  34 2.75 108 2.82 106 2.84  10 2.88   1 2.94  81 2.96  84 2.96
                            76 3.03  73 3.05   9 3.05 100 3.08
  84  0.848  0.215  0.783-  10 2.80  82 2.81  93 2.81   6 2.82  21 2.87  79 2.90  95 2.94  91 2.94
                            83 2.96  78 2.96   9 3.12  81 3.17
  85  0.686  0.376  0.102-  95 2.69  51 2.84  59 2.90  82 2.90  52 2.91  74 2.91  76 2.96  88 2.97
                            94 2.98  40 3.02  87 3.05  86 3.11
  86  0.682  0.556  0.277- 101 2.67  51 2.73  63 2.74  88 2.75  87 2.76  99 2.80  97 2.85  92 2.87
                            52 2.92  56 2.96  85 3.11  89 3.19
  87  0.833  0.394  0.298-  92 2.71  86 2.76  89 2.79  88 2.87  74 2.91  14 2.92  13 2.95   2 2.96
                            80 3.04  85 3.05  17 3.11  76 3.18
  88  0.847  0.551  0.129-  97 2.71  99 2.75  86 2.75  13 2.78  14 2.83  87 2.87 107 2.89  85 2.97
                            25 3.00  95 3.04  22 3.07  94 3.21
  89  0.682  0.378  0.463-  92 2.62  91 2.65  56 2.77  87 2.79  90 2.82  80 2.84  78 2.89  44 2.91
                            51 2.93  55 3.00  74 3.11  86 3.19
  90  0.661  0.537  0.626-  93 2.63  55 2.78  56 2.82  89 2.82  92 2.84  67 2.90 103 2.95  60 2.96
                           101 3.03  91 3.04 105 3.06  96 3.10
  91  0.842  0.371  0.605-  89 2.65  93 2.72  92 2.74  80 2.77   6 2.84  17 2.92  78 2.93  84 2.94
                            21 3.02  90 3.04  18 3.15  96 3.19
  92  0.821  0.538  0.461-  89 2.62  87 2.71 101 2.72  91 2.74  90 2.84 103 2.84  86 2.87  29 2.99
                            18 3.04  17 3.13  99 3.16  14 3.17
  93  0.696  0.384  0.768-  90 2.63  91 2.72  84 2.81  96 2.84  78 2.91  95 2.91  94 2.97  55 3.11
                            60 3.22  59 3.25  48 3.27  82 3.27
  94  0.672  0.551  0.938- 105 2.81  97 2.82  60 2.83  71 2.85  96 2.91  52 2.92  93 2.97  85 2.98
                            95 2.99 107 3.04  59 3.12  88 3.21
  95  0.842  0.381  0.952-  85 2.69  10 2.85  82 2.89  93 2.91  84 2.94  96 2.95  13 2.98  94 2.99
                            22 3.01  88 3.04  76 3.07  21 3.12
  96  0.852  0.552  0.787- 103 2.77  33 2.78  93 2.84  22 2.86  18 2.87  94 2.91 107 2.93  95 2.95
                            21 3.04 105 3.10  90 3.10  91 3.19
  97  0.694  0.706  0.103- 107 2.67  88 2.71  94 2.82  86 2.85  99 2.86 106 2.87 100 2.90  98 2.98
                            71 3.03  64 3.05  63 3.05  52 3.06
  98  0.666  0.870  0.276-  39 2.80  73 2.82  63 2.83  99 2.92 100 2.93  68 2.95 101 2.96  97 2.98
                            64 2.98 104 3.00  75 3.01  77 3.18
  99  0.843  0.715  0.279- 100 2.70  88 2.75  86 2.80  29 2.81  97 2.86  14 2.88  98 2.92 104 2.95
                           101 2.95  25 2.96  92 3.16  26 3.18
 100  0.853  0.875  0.132-  99 2.70  26 2.75  75 2.76  25 2.80  97 2.90  98 2.93 107 2.93  73 2.95
                            34 2.98   1 3.00  83 3.08 106 3.09
 101  0.670  0.696  0.441-  86 2.67  92 2.72  56 2.78  68 2.79  63 2.87 104 2.93  99 2.95  98 2.96
                            67 2.99  90 3.03 103 3.03 102 3.03
 102  0.682  0.859  0.622-  68 2.69 105 2.69 103 2.71 104 2.74  67 2.83  81 2.94 108 3.02 101 3.03
                            77 3.06  43 3.15  72 3.15  79 3.20
 103  0.834  0.701  0.622- 102 2.71  18 2.75  96 2.77  29 2.82  92 2.84 105 2.93 104 2.95  90 2.95
                            33 2.98 108 3.01 101 3.03  30 3.08
 104  0.827  0.872  0.456- 102 2.74  77 2.79  29 2.79 101 2.93  99 2.95 103 2.95  98 3.00  79 3.02
                            30 3.02  75 3.05   5 3.05  26 3.25
 105  0.668  0.722  0.789- 102 2.69 106 2.73  94 2.81  71 2.82  72 2.84  67 2.93 103 2.93  90 3.06
                            60 3.07  96 3.10 107 3.15 108 3.15
 106  0.688  0.875  0.946- 105 2.73  81 2.76  83 2.84  97 2.87 107 2.89  64 2.91  73 2.97 108 2.99
                            47 3.04  71 3.06 100 3.09  72 3.15
 107  0.855  0.713  0.960-  97 2.67  25 2.80  22 2.85  34 2.86 106 2.89  88 2.89  96 2.93 100 2.93
                            94 3.04 108 3.06  33 3.08 105 3.15
 108  0.865  0.882  0.781-  30 2.66  34 2.73  79 2.79  83 2.82   9 2.88  33 2.93 106 2.99 103 3.01
                           102 3.02  81 3.03 107 3.06 105 3.15
 
  LATTYP: Found a simple orthorhombic cell.
 ALAT       =    12.3731126180
 B/A-ratio  =     1.0004404516
 C/A-ratio  =     1.0036359130
  
  Lattice vectors:
  
 A1 = ( -12.3731126176,   0.0000903844,   0.0000030328)
 A2 = (  -0.0000000000, -12.3785623747,  -0.0000633186)
 A3 = (   0.0000000001,  -0.0000000000,  12.4181001792)


Analysis of symmetry for initial positions (statically):
=====================================================================
 Subroutine PRICEL returns:
 Original cell was already a primitive cell.
 

 Routine SETGRP: Setting up the symmetry group for a 
 simple orthorhombic supercell.


 Subroutine GETGRP returns: Found  1 space group operations
 (whereof  1 operations were pure point group operations)
 out of a pool of  8 trial point group operations.


The static configuration has the point symmetry C_1 .


Analysis of symmetry for dynamics (positions and initial velocities):
=====================================================================
 Subroutine PRICEL returns:
 Original cell was already a primitive cell.
 

 Routine SETGRP: Setting up the symmetry group for a 
 simple orthorhombic supercell.


 Subroutine GETGRP returns: Found  1 space group operations
 (whereof  1 operations were pure point group operations)
 out of a pool of  8 trial point group operations.


The dynamic configuration has the point symmetry C_1 .


 Subroutine INISYM returns: Found  1 space group operations
 (whereof  1 operations are pure point group operations),
 and found     1 'primitive' translations


----------------------------------------------------------------------------------------

                                     Primitive cell                                     

  volume of cell :    1901.9729

  direct lattice vectors                    reciprocal lattice vectors
    12.373112618 -0.000090384 -0.000003033     0.080820407 -0.000000000 -0.000000000
     0.000000000 12.378562375  0.000063319     0.000000590  0.080784825  0.000000000
     0.000000000 -0.000000000 12.418100179     0.000000020 -0.000000412  0.080527616

  length of vectors
    12.373112618 12.378562375 12.418100179     0.080820407  0.080784825  0.080527616

  position of ions in fractional coordinates (direct lattice)
     0.010136192  0.059180006  0.117411358
     0.000286952  0.222338272  0.294144837
     0.185646136  0.054468863  0.268871751
     0.192267039  0.220622459  0.122362577
     0.005295020  0.041901809  0.441722460
     0.004968452  0.210591226  0.618931514
     0.179024320  0.038086576  0.616023732
     0.173764349  0.213102751  0.442682858
     0.033149406  0.043905262  0.783046699
     0.001719156  0.214551833  0.948060055
     0.169198382  0.034872754  0.960295986
     0.186224035  0.222667720  0.772610685
     0.002818470  0.389943170  0.131259992
     0.009126812  0.551062214  0.289197049
     0.185694334  0.393219212  0.291424557
     0.170301040  0.539877015  0.126252244
     0.025886017  0.390483902  0.458352305
     0.008182179  0.563436493  0.617253588
     0.184118440  0.381983626  0.612415715
     0.181807832  0.548314060  0.446432750
     0.018170509  0.371953850  0.772571181
     0.017109613  0.549748156  0.948317248
     0.157732487  0.363202867  0.959674685
     0.178485874  0.535288330  0.771624123
     0.018628071  0.722457220  0.116226594
     0.017776411  0.903247174  0.278384947
     0.179630210  0.714436771  0.279623394
     0.189528501  0.882827718  0.122972436
     0.987352709  0.713010965  0.454137119
     0.006862876  0.880059908  0.620566068
     0.167690227  0.724128065  0.595606121
     0.171075204  0.890261042  0.453579630
     0.019092510  0.702181033  0.774494737
     0.008592060  0.885415811  0.949090495
     0.171268015  0.723539767  0.947571684
     0.181479561  0.879130485  0.781913439
     0.342962197  0.055929649  0.107862566
     0.351396565  0.215356200  0.291852232
     0.520077858  0.040848387  0.303857404
     0.515084696  0.202178155  0.120315313
     0.346640198  0.043785580  0.440943705
     0.341901025  0.217036005  0.606315087
     0.506399655  0.042679542  0.639466468
     0.524818638  0.203544014  0.458076255
     0.336004244  0.047544869  0.787958067
     0.337679542  0.215322297  0.947801454
     0.500946034  0.033433171  0.954835513
     0.505912814  0.203603451  0.799890098
     0.352494208  0.376844136  0.126037158
     0.351038034  0.545618868  0.286630809
     0.537520766  0.388895469  0.276529326
     0.514394027  0.536269775  0.112336221
     0.351851630  0.365485434  0.450075100
     0.342914791  0.546210379  0.621205696
     0.495542086  0.385180271  0.618068238
     0.518164354  0.530704406  0.449387917
     0.338932518  0.379543013  0.791928821
     0.319254656  0.538208362  0.950305612
     0.508664877  0.359091386  0.950317570
     0.493698492  0.545002653  0.795622417
     0.335592091  0.711005416  0.122215903
     0.362863357  0.873169414  0.279419963
     0.513357732  0.699083740  0.270236999
     0.507553961  0.865889219  0.094582928
     0.346665199  0.712474553  0.458884060
     0.343647367  0.871389254  0.604235852
     0.506644447  0.712948802  0.617093704
     0.527553730  0.868654821  0.470009259
     0.326053478  0.694566308  0.783451280
     0.341024613  0.869235983  0.966279888
     0.505082917  0.709268428  0.948225869
     0.489221655  0.866044133  0.787824123
     0.678100045  0.037074158  0.122191771
     0.682218527  0.215435415  0.272986735
     0.836466494  0.042504465  0.279006216
     0.850654266  0.204154980  0.125741721
     0.684328963  0.045988878  0.460806391
     0.674341282  0.204756978  0.618933608
     0.863223393  0.043778061  0.624707555
     0.833062727  0.205751510  0.455491949
     0.670352144  0.030061813  0.786851708
     0.699669330  0.195961578  0.953612544
     0.848661488  0.039130688  0.945422523
     0.847666427  0.214913042  0.783391541
     0.685621798  0.375979304  0.102173863
     0.681950814  0.555885654  0.277290314
     0.833234537  0.393718797  0.297790954
     0.847019678  0.551406901  0.128782905
     0.681686329  0.378498473  0.463449901
     0.661328255  0.536634812  0.625578042
     0.841888018  0.371266659  0.604771214
     0.820853945  0.538310073  0.461375095
     0.696474627  0.383966650  0.768456993
     0.671725031  0.551028952  0.938216464
     0.842254742  0.381040822  0.952277039
     0.851971794  0.552220436  0.787259039
     0.694183878  0.705534485  0.103093271
     0.665688095  0.869645096  0.276073242
     0.843465721  0.714567645  0.278803059
     0.852880267  0.875453199  0.132327141
     0.669599540  0.696160393  0.440561087
     0.681724945  0.859416652  0.622267696
     0.833708781  0.701470142  0.621890066
     0.827095771  0.871997637  0.455954461
     0.667718278  0.721760777  0.789285316
     0.688324858  0.875419089  0.945542976
     0.855090721  0.712975857  0.960495782
     0.865384856  0.882105271  0.781417038

  ion indices of the primitive-cell ions
   primitive index   ion index
                 1           1
                 2           2
                 3           3
                 4           4
                 5           5
                 6           6
                 7           7
                 8           8
                 9           9
                10          10
                11          11
                12          12
                13          13
                14          14
                15          15
                16          16
                17          17
                18          18
                19          19
                20          20
                21          21
                22          22
                23          23
                24          24
                25          25
                26          26
                27          27
                28          28
                29          29
                30          30
                31          31
                32          32
                33          33
                34          34
                35          35
                36          36
                37          37
                38          38
                39          39
                40          40
                41          41
                42          42
                43          43
                44          44
                45          45
                46          46
                47          47
                48          48
                49          49
                50          50
                51          51
                52          52
                53          53
                54          54
                55          55
                56          56
                57          57
                58          58
                59          59
                60          60
                61          61
                62          62
                63          63
                64          64
                65          65
                66          66
                67          67
                68          68
                69          69
                70          70
                71          71
                72          72
                73          73
                74          74
                75          75
                76          76
                77          77
                78          78
                79          79
                80          80
                81          81
                82          82
                83          83
                84          84
                85          85
                86          86
                87          87
                88          88
                89          89
                90          90
                91          91
                92          92
                93          93
                94          94
                95          95
                96          96
                97          97
                98          98
                99          99
               100         100
               101         101
               102         102
               103         103
               104         104
               105         105
               106         106
               107         107
               108         108

----------------------------------------------------------------------------------------

 
 
 KPOINTS: KPOINTS                                 

Automatic generation of k-mesh.
 Grid dimensions read from file:
 generate k-points for:    4    4    4

 Generating k-lattice:

  Cartesian coordinates                     Fractional coordinates (reciprocal lattice)
     0.020205102 -0.000000000 -0.000000000     0.250000000  0.000000000 -0.000000000
     0.000000148  0.020196206  0.000000000    -0.000000000  0.250000000 -0.000000000
     0.000000005 -0.000000103  0.020131904     0.000000000 -0.000000000  0.250000000

  Length of vectors
     0.020205102  0.020196206  0.020131904

  Shift w.r.t. Gamma in fractional coordinates (k-lattice)
     0.000000000  0.000000000  0.000000000

 
 Subroutine IBZKPT returns following result:
 ===========================================
 
 Found     36 irreducible k-points:
 
 Following reciprocal coordinates:
            Coordinates               Weight
  0.000000  0.000000  0.000000      1.000000
  0.250000  0.000000 -0.000000      2.000000
  0.500000  0.000000  0.000000      1.000000
  0.000000  0.250000 -0.000000      2.000000
  0.250000  0.250000 -0.000000      2.000000
  0.250000 -0.250000  0.000000      2.000000
  0.500000  0.250000  0.000000      2.000000
  0.000000  0.500000 -0.000000      1.000000
  0.250000  0.500000 -0.000000      2.000000
  0.500000  0.500000  0.000000      1.000000
  0.000000 -0.000000  0.250000      2.000000
  0.250000  0.000000  0.250000      2.000000
  0.250000 -0.000000 -0.250000      2.000000
  0.500000 -0.000000  0.250000      2.000000
  0.000000  0.250000  0.250000      2.000000
  0.000000  0.250000 -0.250000      2.000000
  0.250000  0.250000  0.250000      2.000000
  0.250000 -0.250000 -0.250000      2.000000
 -0.250000  0.250000 -0.250000      2.000000
 -0.250000 -0.250000  0.250000      2.000000
  0.500000  0.250000  0.250000      2.000000
  0.500000  0.250000 -0.250000      2.000000
  0.000000  0.500000  0.250000      2.000000
  0.250000  0.500000  0.250000      2.000000
  0.250000  0.500000 -0.250000      2.000000
  0.500000  0.500000  0.250000      2.000000
  0.000000 -0.000000  0.500000      1.000000
  0.250000 -0.000000  0.500000      2.000000
  0.500000  0.000000  0.500000      1.000000
  0.000000  0.250000  0.500000      2.000000
  0.250000  0.250000  0.500000      2.000000
  0.250000 -0.250000  0.500000      2.000000
  0.500000  0.250000  0.500000      2.000000
  0.000000  0.500000  0.500000      1.000000
  0.250000  0.500000  0.500000      2.000000
  0.500000  0.500000  0.500000      1.000000
 
 Following cartesian coordinates:
            Coordinates               Weight
  0.000000  0.000000  0.000000      1.000000
  0.020205 -0.000000 -0.000000      2.000000
  0.040410 -0.000000 -0.000000      1.000000
  0.000000  0.020196  0.000000      2.000000
  0.020205  0.020196 -0.000000      2.000000
  0.020205 -0.020196 -0.000000      2.000000
  0.040410  0.020196 -0.000000      2.000000
  0.000000  0.040392  0.000000      1.000000
  0.020205  0.040392 -0.000000      2.000000
  0.040410  0.040392 -0.000000      1.000000
  0.000000 -0.000000  0.020132      2.000000
  0.020205 -0.000000  0.020132      2.000000
  0.020205  0.000000 -0.020132      2.000000
  0.040410 -0.000000  0.020132      2.000000
  0.000000  0.020196  0.020132      2.000000
  0.000000  0.020196 -0.020132      2.000000
  0.020205  0.020196  0.020132      2.000000
  0.020205 -0.020196 -0.020132      2.000000
 -0.020205  0.020196 -0.020132      2.000000
 -0.020205 -0.020196  0.020132      2.000000
  0.040410  0.020196  0.020132      2.000000
  0.040410  0.020196 -0.020132      2.000000
  0.000000  0.040392  0.020132      2.000000
  0.020205  0.040392  0.020132      2.000000
  0.020205  0.040393 -0.020132      2.000000
  0.040411  0.040392  0.020132      2.000000
  0.000000 -0.000000  0.040264      1.000000
  0.020205 -0.000000  0.040264      2.000000
  0.040410 -0.000000  0.040264      1.000000
  0.000000  0.020196  0.040264      2.000000
  0.020205  0.020196  0.040264      2.000000
  0.020205 -0.020196  0.040264      2.000000
  0.040410  0.020196  0.040264      2.000000
  0.000000  0.040392  0.040264      1.000000
  0.020205  0.040392  0.040264      2.000000
  0.040411  0.040392  0.040264      1.000000
 


--------------------------------------------------------------------------------------------------------




 Dimension of arrays:
   k-points           NKPTS =     36   k-points in BZ     NKDIM =     36   number of bands    NBANDS=    712
   number of dos      NEDOS =    301   number of ions     NIONS =    108
   non local maximal  LDIM  =      6   non local SUM 2l+1 LMDIM =     18
   total plane-waves  NPLWV = 729000
   max r-space proj   IRMAX =   5565   max aug-charges    IRDMAX= 187691
   dimension x,y,z NGX =    90 NGY =   90 NGZ =   90
   dimension x,y,z NGXF=   180 NGYF=  180 NGZF=  180
   support grid    NGXF=   360 NGYF=  360 NGZF=  360
   ions per type =             108
   NGX,Y,Z   is equivalent  to a cutoff of  12.09, 12.09, 12.05 a.u.
   NGXF,Y,Z  is equivalent  to a cutoff of  24.18, 24.17, 24.10 a.u.

 SYSTEM =  Au_FRESH_TRAIN	                         
 POSCAR =  System 1159                             

 Startparameter for this run:
   NWRITE =      2    write-flag & timer
   PREC   = accura    normal or accurate (medium, high low for compatibility)
   ISTART =      0    job   : 0-new  1-cont  2-samecut
   ICHARG =      2    charge: 1-file 2-atom 10-const
   ISPIN  =      1    spin polarized calculation?
   LNONCOLLINEAR =      F non collinear calculations
   LSORBIT =      F    spin-orbit coupling
   INIWAV =      1    electr: 0-lowe 1-rand  2-diag
   LASPH  =      T    aspherical Exc in radial PAW
 Electronic Relaxation 1
   ENCUT  =  450.0 eV  33.07 Ry    5.75 a.u.  21.40 21.41 21.48*2*pi/ulx,y,z
   ENINI  =  450.0     initial cutoff
   ENAUG  =  356.7 eV  augmentation charge cutoff
   NELM   =    400;   NELMIN=  5; NELMDL= -5     # of ELM steps 
   EDIFF  = 0.1E-05   stopping-criterion for ELM
   LREAL  =      T    real-space projection
   NLSPLINE    = F    spline interpolate recip. space projectors
   LCOMPAT=      F    compatible to vasp.4.4
   GGA_COMPAT  = T    GGA compatible to vasp.4.4-vasp.4.6
   LMAXPAW     = -100 max onsite density
   LMAXMIX     =    2 max onsite mixed and CHGCAR
   VOSKOWN=      0    Vosko Wilk Nusair interpolation
   ROPT   =   -0.00025
 Ionic relaxation
   EDIFFG = -.1E-01   stopping-criterion for IOM
   NSW    =      0    number of steps for IOM
   NBLOCK =      1;   KBLOCK =      1    inner block; outer block 
   IBRION =     -1    ionic relax: 0-MD 1-quasi-New 2-CG
   NFREE  =      0    steps in history (QN), initial steepest desc. (CG)
   ISIF   =      3    stress and relaxation
   IWAVPR =     10    prediction:  0-non 1-charg 2-wave 3-comb
   ISYM   =      2    0-nonsym 1-usesym 2-fastsym
   LCORR  =      T    Harris-Foulkes like correction to forces

   POTIM  = 0.5000    time-step for ionic-motion
   TEIN   =    0.0    initial temperature
   TEBEG  =    0.0;   TEEND  =   0.0 temperature during run
   SMASS  =  -3.00    Nose mass-parameter (am)
   estimated Nose-frequenzy (Omega)   =  0.10E-29 period in steps = 0.13E+47 mass=  -0.350E-26a.u.
   SCALEE = 1.0000    scale energy and forces
   NPACO  =    256;   APACO  = 10.0  distance and # of slots for P.C.
   PSTRESS=    0.0 pullay stress

  Mass of Ions in am
   POMASS = 196.97
  Ionic Valenz
   ZVAL   =  11.00
  Atomic Wigner-Seitz radii
   RWIGS  =  -1.00
  virtual crystal weights 
   VCA    =   1.00
   NELECT =    1188.0000    total number of electrons
   NUPDOWN=      -1.0000    fix difference up-down

 DOS related values:
   EMIN   =  10.00;   EMAX   =-10.00  energy-range for DOS
   EFERMI =   0.00;   METHOD = LEGACY      
   ISMEAR =     0;   SIGMA  =   0.05  broadening in eV -4-tet -1-fermi 0-gaus

 Electronic relaxation 2 (details)
   IALGO  =     68    algorithm
   LDIAG  =      T    sub-space diagonalisation (order eigenvalues)
   LSUBROT=      F    optimize rotation matrix (better conditioning)
   TURBO    =      0    0=normal 1=particle mesh
   IRESTART =      0    0=no restart 2=restart with 2 vectors
   NREBOOT  =      0    no. of reboots
   NMIN     =      0    reboot dimension
   EREF     =   0.00    reference energy to select bands
   IMIX   =      4    mixing-type and parameters
     AMIX     =   0.40;   BMIX     =  1.00
     AMIX_MAG =   1.60;   BMIX_MAG =  1.00
     AMIN     =   0.01
     WC   =   100.;   INIMIX=   1;  MIXPRE=   1;  MAXMIX= -45

 Intra band minimization:
   WEIMIN = 0.0000     energy-eigenvalue tresh-hold
   EBREAK =  0.35E-09  absolut break condition
   DEPER  =   0.30     relativ break condition  

   TIME   =   0.40     timestep for ELM

  volume/ion in A,a.u.               =      17.61       118.84
  Fermi-wavevector in a.u.,A,eV,Ry     =   1.399412  2.644505 26.645016  1.958353
  Thomas-Fermi vector in A             =   2.522474
 
 Write flags
   LWAVE        =      F    write WAVECAR
   LDOWNSAMPLE  =      F    k-point downsampling of WAVECAR
   LCHARG       =      F    write CHGCAR
   LVTOT        =      F    write LOCPOT, total local potential
   LVHAR        =      F    write LOCPOT, Hartree potential only
   LELF         =      F    write electronic localiz. function (ELF)
   LORBIT       =      0    0 simple, 1 ext, 2 COOP (PROOUT), +10 PAW based schemes


 Dipole corrections
   LMONO  =      F    monopole corrections only (constant potential shift)
   LDIPOL =      F    correct potential (dipole corrections)
   IDIPOL =      0    1-x, 2-y, 3-z, 4-all directions 
   EPSILON=  1.0000000 bulk dielectric constant

 Exchange correlation treatment:
   GGA     =    --    GGA type
   LEXCH   =     8    internal setting for exchange type
   LIBXC   =     F    Libxc                    
   VOSKOWN =     0    Vosko Wilk Nusair interpolation
   LHFCALC =     F    Hartree Fock is set to
   LHFONE  =     F    Hartree Fock one center treatment
   AEXX    =    0.0000 exact exchange contribution

 Linear response parameters
   LEPSILON=     F    determine dielectric tensor
   LRPA    =     F    only Hartree local field effects (RPA)
   LNABLA  =     F    use nabla operator in PAW spheres
   LVEL    =     F    velocity operator in full k-point grid
   CSHIFT  =0.1000    complex shift for real part using Kramers Kronig
   OMEGAMAX=  -1.0    maximum frequency
   DEG_THRESHOLD= 0.2000000E-02 threshold for treating states as degnerate
   RTIME   =   -0.100 relaxation time in fs
  (WPLASMAI=    0.000 imaginary part of plasma frequency in eV, 0.658/RTIME)
   DFIELD  = 0.0000000 0.0000000 0.0000000 field for delta impulse in time
 
  Optional k-point grid parameters
   LKPOINTS_OPT  =     F    use optional k-point grid
   KPOINTS_OPT_MODE=     1    mode for optional k-point grid
 
 Orbital magnetization related:
   ORBITALMAG=     F  switch on orbital magnetization
   LCHIMAG   =     F  perturbation theory with respect to B field
   DQ        =  0.001000  dq finite difference perturbation B field
   LLRAUG    =     F  two centre corrections for induced B field
   LBONE     =     F  B-component reconstruction in AE one-centre
   LVGVCALC  =     T  calculate vGv susceptibility
   LVGVAPPL  =     F  apply vGv susceptibility instead of pGv for G=0

 Random number generation:
   RANDOM_GENERATOR = DEFAULT
   PCG_SEED         = not used


--------------------------------------------------------------------------------------------------------


 Static calculation
 charge density and potential will be updated during run
 non-spin polarized calculation
 RMM-DIIS sequential band-by-band and
  variant of blocked Davidson during initial phase
 perform sub-space diagonalisation
    before iterative eigenvector-optimisation
 modified Broyden-mixing scheme, WC =      100.0
 initial mixing is a Kerker type mixing with AMIX =  0.4000 and BMIX =      1.0000
 Hartree-type preconditioning will be used
 using additional bands          118
 real space projection scheme for non local part
 use partial core corrections
 calculate Harris-corrections to forces 
   (improved forces if not selfconsistent)
 use gradient corrections 
 use of overlap-Matrix (Vanderbilt PP)
 Gauss-broadening in eV      SIGMA  =   0.05


--------------------------------------------------------------------------------------------------------


  energy-cutoff  :      450.00
  volume of cell :     1901.97
      direct lattice vectors                 reciprocal lattice vectors
    12.373112618 -0.000090384 -0.000003033     0.080820407 -0.000000000 -0.000000000
     0.000000000 12.378562375  0.000063319     0.000000590  0.080784825  0.000000000
     0.000000000 -0.000000000 12.418100179     0.000000020 -0.000000412  0.080527616

  length of vectors
    12.373112618 12.378562375 12.418100179     0.080820407  0.080784825  0.080527616


 
 k-points in units of 2pi/SCALE and weight: KPOINTS                                 
   0.00000000  0.00000000  0.00000000       0.016
   0.02020510 -0.00000000 -0.00000000       0.031
   0.04041020 -0.00000000 -0.00000000       0.016
   0.00000015  0.02019621  0.00000000       0.031
   0.02020525  0.02019621 -0.00000000       0.031
   0.02020495 -0.02019621 -0.00000000       0.031
   0.04041035  0.02019621 -0.00000000       0.031
   0.00000030  0.04039241  0.00000000       0.016
   0.02020540  0.04039241 -0.00000000       0.031
   0.04041050  0.04039241 -0.00000000       0.016
   0.00000000 -0.00000010  0.02013190       0.031
   0.02020511 -0.00000010  0.02013190       0.031
   0.02020510  0.00000010 -0.02013190       0.031
   0.04041021 -0.00000010  0.02013190       0.031
   0.00000015  0.02019610  0.02013190       0.031
   0.00000014  0.02019631 -0.02013190       0.031
   0.02020525  0.02019610  0.02013190       0.031
   0.02020495 -0.02019610 -0.02013190       0.031
  -0.02020496  0.02019631 -0.02013190       0.031
  -0.02020524 -0.02019631  0.02013190       0.031
   0.04041036  0.02019610  0.02013190       0.031
   0.04041035  0.02019631 -0.02013190       0.031
   0.00000030  0.04039231  0.02013190       0.031
   0.02020540  0.04039231  0.02013190       0.031
   0.02020539  0.04039252 -0.02013190       0.031
   0.04041050  0.04039231  0.02013190       0.031
   0.00000001 -0.00000021  0.04026381       0.016
   0.02020511 -0.00000021  0.04026381       0.031
   0.04041021 -0.00000021  0.04026381       0.016
   0.00000016  0.02019600  0.04026381       0.031
   0.02020526  0.02019600  0.04026381       0.031
   0.02020496 -0.02019641  0.04026381       0.031
   0.04041036  0.02019600  0.04026381       0.031
   0.00000030  0.04039221  0.04026381       0.016
   0.02020541  0.04039221  0.04026381       0.031
   0.04041051  0.04039221  0.04026381       0.016
 
 k-points in reciprocal lattice and weights: KPOINTS                                 
   0.00000000  0.00000000  0.00000000       0.016
   0.25000000  0.00000000 -0.00000000       0.031
   0.50000000  0.00000000  0.00000000       0.016
   0.00000000  0.25000000 -0.00000000       0.031
   0.25000000  0.25000000 -0.00000000       0.031
   0.25000000 -0.25000000  0.00000000       0.031
   0.50000000  0.25000000  0.00000000       0.031
   0.00000000  0.50000000 -0.00000000       0.016
   0.25000000  0.50000000 -0.00000000       0.031
   0.50000000  0.50000000  0.00000000       0.016
   0.00000000 -0.00000000  0.25000000       0.031
   0.25000000  0.00000000  0.25000000       0.031
   0.25000000 -0.00000000 -0.25000000       0.031
   0.50000000 -0.00000000  0.25000000       0.031
   0.00000000  0.25000000  0.25000000       0.031
   0.00000000  0.25000000 -0.25000000       0.031
   0.25000000  0.25000000  0.25000000       0.031
   0.25000000 -0.25000000 -0.25000000       0.031
  -0.25000000  0.25000000 -0.25000000       0.031
  -0.25000000 -0.25000000  0.25000000       0.031
   0.50000000  0.25000000  0.25000000       0.031
   0.50000000  0.25000000 -0.25000000       0.031
   0.00000000  0.50000000  0.25000000       0.031
   0.25000000  0.50000000  0.25000000       0.031
   0.25000000  0.50000000 -0.25000000       0.031
   0.50000000  0.50000000  0.25000000       0.031
   0.00000000 -0.00000000  0.50000000       0.016
   0.25000000 -0.00000000  0.50000000       0.031
   0.50000000  0.00000000  0.50000000       0.016
   0.00000000  0.25000000  0.50000000       0.031
   0.25000000  0.25000000  0.50000000       0.031
   0.25000000 -0.25000000  0.50000000       0.031
   0.50000000  0.25000000  0.50000000       0.031
   0.00000000  0.50000000  0.50000000       0.016
   0.25000000  0.50000000  0.50000000       0.031
   0.50000000  0.50000000  0.50000000       0.016
 
 position of ions in fractional coordinates (direct lattice) 
   0.01013619  0.05918001  0.11741136
   0.00028695  0.22233827  0.29414484
   0.18564614  0.05446886  0.26887175
   0.19226704  0.22062246  0.12236258
   0.00529502  0.04190181  0.44172246
   0.00496845  0.21059123  0.61893151
   0.17902432  0.03808658  0.61602373
   0.17376435  0.21310275  0.44268286
   0.03314941  0.04390526  0.78304670
   0.00171916  0.21455183  0.94806005
   0.16919838  0.03487275  0.96029599
   0.18622403  0.22266772  0.77261069
   0.00281847  0.38994317  0.13125999
   0.00912681  0.55106221  0.28919705
   0.18569433  0.39321921  0.29142456
   0.17030104  0.53987702  0.12625224
   0.02588602  0.39048390  0.45835231
   0.00818218  0.56343649  0.61725359
   0.18411844  0.38198363  0.61241572
   0.18180783  0.54831406  0.44643275
   0.01817051  0.37195385  0.77257118
   0.01710961  0.54974816  0.94831725
   0.15773249  0.36320287  0.95967468
   0.17848587  0.53528833  0.77162412
   0.01862807  0.72245722  0.11622659
   0.01777641  0.90324717  0.27838495
   0.17963021  0.71443677  0.27962339
   0.18952850  0.88282772  0.12297244
   0.98735271  0.71301096  0.45413712
   0.00686288  0.88005991  0.62056607
   0.16769023  0.72412807  0.59560612
   0.17107520  0.89026104  0.45357963
   0.01909251  0.70218103  0.77449474
   0.00859206  0.88541581  0.94909049
   0.17126802  0.72353977  0.94757168
   0.18147956  0.87913049  0.78191344
   0.34296220  0.05592965  0.10786257
   0.35139657  0.21535620  0.29185223
   0.52007786  0.04084839  0.30385740
   0.51508470  0.20217815  0.12031531
   0.34664020  0.04378558  0.44094371
   0.34190103  0.21703601  0.60631509
   0.50639965  0.04267954  0.63946647
   0.52481864  0.20354401  0.45807626
   0.33600424  0.04754487  0.78795807
   0.33767954  0.21532230  0.94780145
   0.50094603  0.03343317  0.95483551
   0.50591281  0.20360345  0.79989010
   0.35249421  0.37684414  0.12603716
   0.35103803  0.54561887  0.28663081
   0.53752077  0.38889547  0.27652933
   0.51439403  0.53626978  0.11233622
   0.35185163  0.36548543  0.45007510
   0.34291479  0.54621038  0.62120570
   0.49554209  0.38518027  0.61806824
   0.51816435  0.53070441  0.44938792
   0.33893252  0.37954301  0.79192882
   0.31925466  0.53820836  0.95030561
   0.50866488  0.35909139  0.95031757
   0.49369849  0.54500265  0.79562242
   0.33559209  0.71100542  0.12221590
   0.36286336  0.87316941  0.27941996
   0.51335773  0.69908374  0.27023700
   0.50755396  0.86588922  0.09458293
   0.34666520  0.71247455  0.45888406
   0.34364737  0.87138925  0.60423585
   0.50664445  0.71294880  0.61709370
   0.52755373  0.86865482  0.47000926
   0.32605348  0.69456631  0.78345128
   0.34102461  0.86923598  0.96627989
   0.50508292  0.70926843  0.94822587
   0.48922166  0.86604413  0.78782412
   0.67810005  0.03707416  0.12219177
   0.68221853  0.21543541  0.27298673
   0.83646649  0.04250447  0.27900622
   0.85065427  0.20415498  0.12574172
   0.68432896  0.04598888  0.46080639
   0.67434128  0.20475698  0.61893361
   0.86322339  0.04377806  0.62470755
   0.83306273  0.20575151  0.45549195
   0.67035214  0.03006181  0.78685171
   0.69966933  0.19596158  0.95361254
   0.84866149  0.03913069  0.94542252
   0.84766643  0.21491304  0.78339154
   0.68562180  0.37597930  0.10217386
   0.68195081  0.55588565  0.27729031
   0.83323454  0.39371880  0.29779095
   0.84701968  0.55140690  0.12878291
   0.68168633  0.37849847  0.46344990
   0.66132826  0.53663481  0.62557804
   0.84188802  0.37126666  0.60477121
   0.82085395  0.53831007  0.46137509
   0.69647463  0.38396665  0.76845699
   0.67172503  0.55102895  0.93821646
   0.84225474  0.38104082  0.95227704
   0.85197179  0.55222044  0.78725904
   0.69418388  0.70553449  0.10309327
   0.66568809  0.86964510  0.27607324
   0.84346572  0.71456764  0.27880306
   0.85288027  0.87545320  0.13232714
   0.66959954  0.69616039  0.44056109
   0.68172495  0.85941665  0.62226770
   0.83370878  0.70147014  0.62189007
   0.82709577  0.87199764  0.45595446
   0.66771828  0.72176078  0.78928532
   0.68832486  0.87541909  0.94554298
   0.85509072  0.71297586  0.96049578
   0.86538486  0.88210527  0.78141704
 
 position of ions in cartesian coordinates  (Angst):
   0.12541625  0.73256248  1.45802972
   0.00355049  2.75222815  3.65273414
   2.29702055  0.67422944  3.33887923
   2.37894173  2.73097149  1.51952413
   0.06551587  0.51868367  5.48535640
   0.06147522  2.60681617  7.68596686
   2.21508808  0.47144087  7.64984629
   2.15000586  2.63789000  5.49729304
   0.41016134  0.54348103  9.72395503
   0.02127132  2.65584310 11.77311832
   2.09351063  0.43165927 11.92505345
   2.30417095  2.75628943  9.59437042
   0.03487325  4.82693559  1.63002441
   0.11292707  6.82135716  3.59131279
   2.29761691  4.86747176  3.61896368
   2.10715394  6.68288591  1.56784668
   0.32029061  4.83362699  5.69188949
   0.10123903  6.97453303  7.66515254
   2.27811819  4.72839150  7.60506333
   2.24952878  6.78732336  5.54388078
   0.22482575  4.60425229  9.59388982
   0.21169917  6.80509030 11.77633335
   1.95164183  4.49591509 11.91735890
   2.20842582  6.62608385  9.58213901
   0.23048722  8.94298007  1.44335917
   0.21994954 11.18089988  3.45706929
   2.22258482  8.84368389  3.47243601
   2.34505749 10.92812084  1.52713936
  12.21662626  8.82596146  5.63956239
   0.08491514 10.89387585  7.70630731
   2.07485006  8.96364927  7.39634183
   2.11673277 11.02013638  5.63265314
   0.23623378  8.69198999  9.61779763
   0.10631053 10.96017406 11.78595688
   2.11911844  8.95636665 11.76708539
   2.24546704 10.88235514  9.70993453
   4.24350989  0.69229765  1.33945065
   4.34786927  2.66576840  3.62426282
   6.43498190  0.50559730  3.77333269
   6.37320096  2.50262834  1.49409885
   4.28901821  0.54197120  5.47568483
   4.23037989  2.68656283  7.52929419
   6.26573996  0.52826560  7.94095982
   6.49364012  2.51953483  5.68844813
   4.15741836  0.58850676  9.78494421
   4.17814700  2.66534996 11.76990601
   6.19826169  0.41380931 11.85724366
   6.25971622  2.52027229  9.93312672
   4.36145053  4.66475679  1.56516484
   4.34343312  6.75394546  3.55944359
   6.65080497  4.81391824  3.43399187
   6.36465523  6.63820237  1.39503484
   4.35349985  4.52415244  5.58909975
   4.24292333  6.76126825  7.71422811
   6.13139803  4.76793322  7.67525619
   6.41130590  6.56931076  5.58057620
   4.19365021  4.69816623  9.83427443
   3.95017382  6.66221692 11.80102340
   6.29376781  4.44498915 11.80115999
   6.10858704  6.74630471  9.88015189
   4.15231873  8.80119456  1.51773333
   4.48974918 10.80854926  3.46991928
   6.35183304  8.65360528  3.35587284
   6.28002232 10.71841783  1.17459356
   4.28932755  8.81937936  5.69851229
   4.25198757 10.78651517  7.50351548
   6.26876880  8.82523542  7.66317504
   6.52748172 10.75265020  5.83667547
   4.03429641  8.59770289  9.72901947
   4.21953594 10.75986101 11.99941445
   6.24944781  8.77967782 11.77520721
   6.05319463 10.72033710  9.78333224
   8.39020823  0.45886348  1.51738994
   8.44116666  2.66671906  3.38998819
  10.34969413  0.52606857  3.46472729
  10.52524103  2.52706827  1.56148364
   8.46727933  0.56921434  5.72234077
   8.34370062  2.53453608  7.68599047
  10.68076025  0.54183144  7.75768115
  10.30757894  2.54683261  5.65635515
   8.29434257  0.37206144  9.77120321
   8.65708741  2.42565938 11.84206639
  10.50058416  0.48430496 11.74035150
  10.48827217  2.66023788  9.72824567
   8.48327572  4.65402130  1.26882699
   8.43785422  6.88100361  3.44345202
  10.30970477  4.87359737  3.69802030
  10.48026987  6.82554817  1.59927137
   8.43458172  4.68520534  5.75518919
   8.18268898  6.64270771  7.76852277
  10.41677526  4.59567141  7.51013048
  10.15651831  6.66343063  5.72943374
   8.61755899  4.75289218  9.54279812
   8.31132945  6.82088554 11.65089889
  10.42131278  4.71666146 11.82549324
  10.54154295  6.83561811  9.77629400
   8.58921530  8.73343989  1.28026514
   8.23663376 10.76489590  3.42835822
  10.43629636  8.84524393  3.46224701
  10.55278359 10.83677494  1.64330453
   8.28503052  8.61740433  5.47097377
   8.43505952 10.63828101  7.72743493
  10.31557264  8.68311655  7.72273502
  10.23374912 10.79400238  5.66214087
   8.26175345  8.93430045  9.80146780
   8.51672099 10.83636759 11.74190074
  10.58013379  8.82553883 11.92757540
  10.70750428 10.91911690  9.70376829
 


--------------------------------------------------------------------------------------------------------


 k-point   1 :   0.0000 0.0000 0.0000  plane waves:   41299
 k-point   2 :   0.2500 0.0000-0.0000  plane waves:   41233
 k-point   3 :   0.5000 0.0000 0.0000  plane waves:   41242
 k-point   4 :   0.0000 0.2500-0.0000  plane waves:   41219
 k-point   5 :   0.2500 0.2500-0.0000  plane waves:   41232
 k-point   6 :   0.2500-0.2500 0.0000  plane waves:   41232
 k-point   7 :   0.5000 0.2500 0.0000  plane waves:   41236
 k-point   8 :   0.0000 0.5000-0.0000  plane waves:   41234
 k-point   9 :   0.2500 0.5000-0.0000  plane waves:   41228
 k-point  10 :   0.5000 0.5000 0.0000  plane waves:   41180
 k-point  11 :   0.0000-0.0000 0.2500  plane waves:   41257
 k-point  12 :   0.2500 0.0000 0.2500  plane waves:   41236
 k-point  13 :   0.2500-0.0000-0.2500  plane waves:   41236
 k-point  14 :   0.5000-0.0000 0.2500  plane waves:   41244
 k-point  15 :   0.0000 0.2500 0.2500  plane waves:   41241
 k-point  16 :   0.0000 0.2500-0.2500  plane waves:   41240
 k-point  17 :   0.2500 0.2500 0.2500  plane waves:   41234
 k-point  18 :   0.2500-0.2500-0.2500  plane waves:   41234
 k-point  19 :  -0.2500 0.2500-0.2500  plane waves:   41234
 k-point  20 :  -0.2500-0.2500 0.2500  plane waves:   41234
 k-point  21 :   0.5000 0.2500 0.2500  plane waves:   41210
 k-point  22 :   0.5000 0.2500-0.2500  plane waves:   41210
 k-point  23 :   0.0000 0.5000 0.2500  plane waves:   41232
 k-point  24 :   0.2500 0.5000 0.2500  plane waves:   41211
 k-point  25 :   0.2500 0.5000-0.2500  plane waves:   41211
 k-point  26 :   0.5000 0.5000 0.2500  plane waves:   41208
 k-point  27 :   0.0000-0.0000 0.5000  plane waves:   41234
 k-point  28 :   0.2500-0.0000 0.5000  plane waves:   41228
 k-point  29 :   0.5000 0.0000 0.5000  plane waves:   41180
 k-point  30 :   0.0000 0.2500 0.5000  plane waves:   41236
 k-point  31 :   0.2500 0.2500 0.5000  plane waves:   41206
 k-point  32 :   0.2500-0.2500 0.5000  plane waves:   41205
 k-point  33 :   0.5000 0.2500 0.5000  plane waves:   41204
 k-point  34 :   0.0000 0.5000 0.5000  plane waves:   41188
 k-point  35 :   0.2500 0.5000 0.5000  plane waves:   41192
 k-point  36 :   0.5000 0.5000 0.5000  plane waves:   41248

 maximum and minimum number of plane-waves per node :      4158     4077

 maximum number of plane-waves:     41299
 maximum index in each direction: 
   IXMAX=   21   IYMAX=   21   IZMAX=   21
   IXMIN=  -21   IYMIN=  -21   IZMIN=  -21


 real space projection operators:
  total allocation   :      81306.56 KBytes
  max/ min on nodes  :       8176.64       8068.50


 parallel 3D FFT for wavefunctions:
    minimum data exchange during FFTs selected (reduces bandwidth)
 parallel 3D FFT for charge:
    minimum data exchange during FFTs selected (reduces bandwidth)


 total amount of memory used by VASP MPI-rank0  1001024. kBytes
=======================================================================

   base      :      30000. kBytes
   nonlr-proj:      20211. kBytes
   fftplans  :      44901. kBytes
   grid      :      17029. kBytes
   one-center:        171. kBytes
   wavefun   :     888712. kBytes
 
     INWAV:  cpu time      0.0001: real time      0.0003
 Broyden mixing: mesh for mixing (old mesh)
   NGX = 43   NGY = 43   NGZ = 43
  (NGX  =180   NGY  =180   NGZ  =180)
  gives a total of  79507 points

 initial charge density was supplied:
 charge density of overlapping atoms calculated
 number of electron    1188.0000000 magnetization 
 keeping initial charge density in first step


--------------------------------------------------------------------------------------------------------


 Maximum index for non-local projection operator          586
 Maximum index for augmentation-charges         9251 (set IRDMAX)


--------------------------------------------------------------------------------------------------------


 First call to EWALD:  gamma=   0.143
 Maximum number of real-space cells 3x 3x 3
 Maximum number of reciprocal cells 3x 3x 3

    FEWALD:  cpu time      0.0043: real time      0.0048


--------------------------------------- Ionic step        1  -------------------------------------------




--------------------------------------- Iteration      1(   1)  ---------------------------------------


    POTLOK:  cpu time      0.2064: real time      0.2066
    SETDIJ:  cpu time      1.1924: real time      1.1927
     EDDAV:  cpu time    363.7964: real time    364.0778
       DOS:  cpu time      0.0330: real time      0.0330
    --------------------------------------------
      LOOP:  cpu time    365.2281: real time    365.5102

 eigenvalue-minimisations  : 51336
 total energy-change (2. order) : 0.7922159E+04  (-0.5598952E+05)
 number of electron    1188.0000000 magnetization 
 augmentation part     1188.0000000 magnetization 

 Free energy of the ion-electron system (eV)
  ---------------------------------------------------
  alpha Z        PSCENC =      7143.20421029
  Ewald energy   TEWEN  =   -103975.29856812
  -Hartree energ DENC   =    -14279.08633308
  -exchange      EXHF   =         0.00000000
  -V(xc)+E(xc)   XCENC  =      1683.20462194
  PAW double counting   =     94402.53036210   -91909.09456100
  entropy T*S    EENTRO =        -0.03679436
  eigenvalues    EBANDS =     14839.99122497
  atomic energy  EATOM  =    100016.74509547
  Solvation  Ediel_sol  =         0.00000000
  ---------------------------------------------------
  free energy    TOTEN  =      7922.15925821 eV

  energy without entropy =     7922.19605256  energy(sigma->0) =     7922.17765539


--------------------------------------------------------------------------------------------------------




--------------------------------------- Iteration      1(   2)  ---------------------------------------


     EDDAV:  cpu time    382.7593: real time    383.0623
       DOS:  cpu time      0.0322: real time      0.0322
    --------------------------------------------
      LOOP:  cpu time    382.7915: real time    383.0945

 eigenvalue-minimisations  : 54584
 total energy-change (2. order) :-0.7948950E+04  (-0.7559360E+04)
 number of electron    1188.0000000 magnetization 
 augmentation part     1188.0000000 magnetization 

 Free energy of the ion-electron system (eV)
  ---------------------------------------------------
  alpha Z        PSCENC =      7143.20421029
  Ewald energy   TEWEN  =   -103975.29856812
  -Hartree energ DENC   =    -14279.08633308
  -exchange      EXHF   =         0.00000000
  -V(xc)+E(xc)   XCENC  =      1683.20462194
  PAW double counting   =     94402.53036210   -91909.09456100
  entropy T*S    EENTRO =        -0.03711588
  eigenvalues    EBANDS =      6891.04146449
  atomic energy  EATOM  =    100016.74509547
  Solvation  Ediel_sol  =         0.00000000
  ---------------------------------------------------
  free energy    TOTEN  =       -26.79082379 eV

  energy without entropy =      -26.75370791  energy(sigma->0) =      -26.77226585


--------------------------------------------------------------------------------------------------------




--------------------------------------- Iteration      1(   3)  ---------------------------------------


     EDDAV:  cpu time    384.1950: real time    384.4046
       DOS:  cpu time      0.0335: real time      0.0335
    --------------------------------------------
      LOOP:  cpu time    384.2285: real time    384.4381

 eigenvalue-minimisations  : 54864
 total energy-change (2. order) :-0.3358143E+03  (-0.3237043E+03)
 number of electron    1188.0000000 magnetization 
 augmentation part     1188.0000000 magnetization 

 Free energy of the ion-electron system (eV)
  ---------------------------------------------------
  alpha Z        PSCENC =      7143.20421029
  Ewald energy   TEWEN  =   -103975.29856812
  -Hartree energ DENC   =    -14279.08633308
  -exchange      EXHF   =         0.00000000
  -V(xc)+E(xc)   XCENC  =      1683.20462194
  PAW double counting   =     94402.53036210   -91909.09456100
  entropy T*S    EENTRO =        -0.04122717
  eigenvalues    EBANDS =      6555.23130576
  atomic energy  EATOM  =    100016.74509547
  Solvation  Ediel_sol  =         0.00000000
  ---------------------------------------------------
  free energy    TOTEN  =      -362.60509382 eV

  energy without entropy =     -362.56386665  energy(sigma->0) =     -362.58448023


--------------------------------------------------------------------------------------------------------




--------------------------------------- Iteration      1(   4)  ---------------------------------------


     EDDAV:  cpu time    380.9921: real time    381.1556
       DOS:  cpu time      0.0344: real time      0.0344
    --------------------------------------------
      LOOP:  cpu time    381.0265: real time    381.1900

 eigenvalue-minimisations  : 54344
 total energy-change (2. order) :-0.5479978E+01  (-0.5439309E+01)
 number of electron    1188.0000000 magnetization 
 augmentation part     1188.0000000 magnetization 

 Free energy of the ion-electron system (eV)
  ---------------------------------------------------
  alpha Z        PSCENC =      7143.20421029
  Ewald energy   TEWEN  =   -103975.29856812
  -Hartree energ DENC   =    -14279.08633308
  -exchange      EXHF   =         0.00000000
  -V(xc)+E(xc)   XCENC  =      1683.20462194
  PAW double counting   =     94402.53036210   -91909.09456100
  entropy T*S    EENTRO =        -0.04169179
  eigenvalues    EBANDS =      6549.75179249
  atomic energy  EATOM  =    100016.74509547
  Solvation  Ediel_sol  =         0.00000000
  ---------------------------------------------------
  free energy    TOTEN  =      -368.08507171 eV

  energy without entropy =     -368.04337992  energy(sigma->0) =     -368.06422581


--------------------------------------------------------------------------------------------------------




--------------------------------------- Iteration      1(   5)  ---------------------------------------


     EDDAV:  cpu time    383.0620: real time    383.2726
       DOS:  cpu time      0.0370: real time      0.0370
    CHARGE:  cpu time     12.5425: real time     12.5431
    MIXING:  cpu time      0.0075: real time      0.0075
    --------------------------------------------
      LOOP:  cpu time    395.6490: real time    395.8603

 eigenvalue-minimisations  : 54672
 total energy-change (2. order) :-0.7847283E-01  (-0.7833485E-01)
 number of electron    1188.0000021 magnetization 
 augmentation part      416.7989604 magnetization 

 Broyden mixing:
  rms(total) = 0.93242E+01    rms(broyden)= 0.93242E+01
  rms(prec ) = 0.96251E+01
  weight for this iteration     100.00

 Free energy of the ion-electron system (eV)
  ---------------------------------------------------
  alpha Z        PSCENC =      7143.20421029
  Ewald energy   TEWEN  =   -103975.29856812
  -Hartree energ DENC   =    -14279.08633308
  -exchange      EXHF   =         0.00000000
  -V(xc)+E(xc)   XCENC  =      1683.20462194
  PAW double counting   =     94402.53036210   -91909.09456100
  entropy T*S    EENTRO =        -0.04170601
  eigenvalues    EBANDS =      6549.67333388
  atomic energy  EATOM  =    100016.74509547
  Solvation  Ediel_sol  =         0.00000000
  ---------------------------------------------------
  free energy    TOTEN  =      -368.16354454 eV

  energy without entropy =     -368.12183852  energy(sigma->0) =     -368.14269153


--------------------------------------------------------------------------------------------------------




--------------------------------------- Iteration      1(   6)  ---------------------------------------


    POTLOK:  cpu time      0.2031: real time      0.2083
    SETDIJ:  cpu time      1.1890: real time      1.1892
    EDDIAG:  cpu time     56.2269: real time     56.2586
  RMM-DIIS:  cpu time    187.5898: real time    187.6961
    ORTHCH:  cpu time     13.8363: real time     13.8461
       DOS:  cpu time      0.0281: real time      0.0281
    CHARGE:  cpu time     12.5403: real time     12.5408
    MIXING:  cpu time      0.0075: real time      0.0075
    --------------------------------------------
      LOOP:  cpu time    271.6210: real time    271.7746

 eigenvalue-minimisations  : 51275
 total energy-change (2. order) : 0.2670782E+02  (-0.6547126E+01)
 number of electron    1188.0000022 magnetization 
 augmentation part      429.7134417 magnetization 

 Broyden mixing:
  rms(total) = 0.59591E+01    rms(broyden)= 0.59591E+01
  rms(prec ) = 0.59969E+01
  weight for this iteration     100.00

 eigenvalues of (default mixing * dielectric matrix)
  average eigenvalue GAMMA=   2.2208
  2.2208

 Free energy of the ion-electron system (eV)
  ---------------------------------------------------
  alpha Z        PSCENC =      7143.20421029
  Ewald energy   TEWEN  =   -103975.29856812
  -Hartree energ DENC   =    -13438.54243262
  -exchange      EXHF   =         0.00000000
  -V(xc)+E(xc)   XCENC  =      1646.43528549
  PAW double counting   =    101617.26051844   -99259.88439673
  entropy T*S    EENTRO =        -0.04257522
  eigenvalues    EBANDS =      5908.66714168
  atomic energy  EATOM  =    100016.74509547
  Solvation  Ediel_sol  =         0.00000000
  ---------------------------------------------------
  free energy    TOTEN  =      -341.45572132 eV

  energy without entropy =     -341.41314611  energy(sigma->0) =     -341.43443371


--------------------------------------------------------------------------------------------------------




--------------------------------------- Iteration      1(   7)  ---------------------------------------


    POTLOK:  cpu time      0.2036: real time      0.2095
    SETDIJ:  cpu time      1.1909: real time      1.1909
    EDDIAG:  cpu time     56.5261: real time     56.5516
  RMM-DIIS:  cpu time    190.8618: real time    190.9820
    ORTHCH:  cpu time     13.8215: real time     13.8271
       DOS:  cpu time      0.0322: real time      0.0322
    CHARGE:  cpu time     12.7158: real time     12.7400
    MIXING:  cpu time      0.0075: real time      0.0075
    --------------------------------------------
      LOOP:  cpu time    275.3594: real time    275.5409

 eigenvalue-minimisations  : 52333
 total energy-change (2. order) : 0.1269435E+01  (-0.2054196E+01)
 number of electron    1188.0000022 magnetization 
 augmentation part      436.4692685 magnetization 

 Broyden mixing:
  rms(total) = 0.18576E+01    rms(broyden)= 0.18576E+01
  rms(prec ) = 0.18814E+01
  weight for this iteration     100.00

 eigenvalues of (default mixing * dielectric matrix)
  average eigenvalue GAMMA=   2.0571
  1.3275  2.7867

 Free energy of the ion-electron system (eV)
  ---------------------------------------------------
  alpha Z        PSCENC =      7143.20421029
  Ewald energy   TEWEN  =   -103975.29856812
  -Hartree energ DENC   =    -12976.28313295
  -exchange      EXHF   =         0.00000000
  -V(xc)+E(xc)   XCENC  =      1625.87424145
  PAW double counting   =    111701.47151225  -109479.11392483
  entropy T*S    EENTRO =        -0.03175382
  eigenvalues    EBANDS =      5603.24603406
  atomic energy  EATOM  =    100016.74509547
  Solvation  Ediel_sol  =         0.00000000
  ---------------------------------------------------
  free energy    TOTEN  =      -340.18628620 eV

  energy without entropy =     -340.15453238  energy(sigma->0) =     -340.17040929


--------------------------------------------------------------------------------------------------------




--------------------------------------- Iteration      1(   8)  ---------------------------------------


    POTLOK:  cpu time      0.2039: real time      0.2100
    SETDIJ:  cpu time      1.1907: real time      1.1909
    EDDIAG:  cpu time     56.4538: real time     56.4641
  RMM-DIIS:  cpu time    192.0235: real time    192.1113
    ORTHCH:  cpu time     13.8436: real time     13.8442
       DOS:  cpu time      0.0324: real time      0.0324
    CHARGE:  cpu time     12.5509: real time     12.5517
    MIXING:  cpu time      0.0071: real time      0.0071
    --------------------------------------------
      LOOP:  cpu time    276.3061: real time    276.4117

 eigenvalue-minimisations  : 52434
 total energy-change (2. order) : 0.5632325E+00  (-0.4501383E+00)
 number of electron    1188.0000022 magnetization 
 augmentation part      433.6160053 magnetization 

 Broyden mixing:
  rms(total) = 0.48519E+00    rms(broyden)= 0.48519E+00
  rms(prec ) = 0.48980E+00
  weight for this iteration     100.00

 eigenvalues of (default mixing * dielectric matrix)
  average eigenvalue GAMMA=   1.5443
  2.5357  1.2969  0.8003

 Free energy of the ion-electron system (eV)
  ---------------------------------------------------
  alpha Z        PSCENC =      7143.20421029
  Ewald energy   TEWEN  =   -103975.29856812
  -Hartree energ DENC   =    -13092.08819858
  -exchange      EXHF   =         0.00000000
  -V(xc)+E(xc)   XCENC  =      1630.47456538
  PAW double counting   =    114757.47418769  -112559.60018568
  entropy T*S    EENTRO =        -0.03940530
  eigenvalues    EBANDS =      5739.50524519
  atomic energy  EATOM  =    100016.74509547
  Solvation  Ediel_sol  =         0.00000000
[...]
   -.553E+01 0.164E-01 -.137E+02   0.547E+01 0.218E+00 0.134E+02   -.196E+00 -.525E+00 0.567E+00   0.368E-04 0.391E-04 -.304E-04
   -.688E+02 -.577E+02 0.164E+02   0.685E+02 0.575E+02 -.160E+02   0.107E+01 0.783E+00 -.100E+01   -.625E-04 -.397E-05 0.418E-05
   -.849E+02 -.446E+02 0.431E+02   0.849E+02 0.444E+02 -.425E+02   0.710E+00 0.270E+00 -.148E+01   -.545E-04 -.882E-04 0.154E-03
   -.110E+02 -.133E+02 0.276E+02   0.111E+02 0.134E+02 -.273E+02   -.566E-01 0.179E+00 -.521E+00   0.554E-04 -.805E-04 0.298E-05
   -.140E+01 -.208E+01 0.275E+00   0.171E+01 0.234E+01 -.430E-01   -.192E+00 -.235E+00 -.821E-01   -.382E-04 0.311E-04 -.310E-04
   0.606E+02 0.835E+02 0.183E+01   -.599E+02 -.834E+02 -.211E+01   -.138E+01 -.110E+01 0.592E+00   0.500E-04 0.107E-04 -.139E-03
   0.325E+02 0.693E+00 0.809E+02   -.327E+02 -.123E+01 -.811E+02   -.476E-01 0.891E+00 -.674E+00   -.428E-04 -.159E-03 -.696E-05
   -.163E+02 -.207E+02 0.470E+02   0.167E+02 0.203E+02 -.471E+02   -.300E+00 0.152E+01 -.498E+00   -.414E-04 -.180E-03 0.228E-04
   -.913E+01 -.114E+02 0.593E+02   0.924E+01 0.115E+02 -.592E+02   -.866E-01 -.404E-01 -.105E+01   -.550E-04 0.272E-05 0.152E-03
   -.458E+02 0.865E+02 -.803E+02   0.454E+02 -.861E+02 0.800E+02   0.106E+01 -.125E+01 0.102E+01   -.113E-03 -.199E-04 0.398E-05
   0.790E+02 -.279E+02 0.803E+01   -.790E+02 0.275E+02 -.819E+01   -.905E+00 0.106E+01 -.222E-01   0.294E-04 -.105E-03 -.113E-04
   -.600E+02 0.355E+02 -.211E+02   0.602E+02 -.355E+02 0.215E+02   0.316E+00 -.174E+00 -.593E+00   -.271E-04 0.333E-04 0.948E-04
   -.383E+02 0.208E+02 -.833E+02   0.377E+02 -.209E+02 0.835E+02   0.929E+00 0.126E+00 0.820E+00   -.875E-04 -.986E-04 -.992E-04
   -.738E+02 -.369E+02 0.174E+02   0.737E+02 0.362E+02 -.176E+02   0.686E+00 0.161E+01 0.464E+00   -.669E-04 -.195E-03 0.315E-04
   -.742E+02 0.538E+02 -.307E+02   0.740E+02 -.538E+02 0.311E+02   0.918E+00 -.401E+00 -.590E+00   -.198E-03 0.738E-05 0.101E-03
   -.217E+02 0.793E+02 0.348E+01   0.217E+02 -.794E+02 -.314E+01   0.418E+00 -.106E+01 -.680E+00   -.643E-04 0.959E-04 0.127E-03
   -.294E+01 -.402E+02 -.636E+02   0.360E+01 0.400E+02 0.637E+02   -.719E+00 0.497E+00 0.462E+00   0.383E-04 0.248E-04 -.115E-04
   0.420E+02 -.602E+02 -.117E+02   -.421E+02 0.601E+02 0.114E+02   -.157E+00 0.794E+00 0.467E+00   -.103E-03 0.139E-04 -.590E-04
   -.621E+02 -.462E+02 -.997E+02   0.623E+02 0.461E+02 0.992E+02   0.112E+01 0.447E+00 0.249E+01   -.135E-03 0.452E-04 -.142E-03
   -.246E+01 -.780E+01 0.921E+02   0.207E+01 0.752E+01 -.917E+02   0.463E+00 -.306E+00 -.176E+01   -.738E-04 0.158E-03 0.630E-04
   -.121E+02 -.694E+02 -.181E+02   0.122E+02 0.695E+02 0.175E+02   -.265E+00 0.897E+00 0.148E+01   0.162E-04 -.148E-04 -.209E-03
   -.602E+01 0.323E+02 -.270E+02   0.585E+01 -.321E+02 0.268E+02   0.284E+00 -.142E+01 0.901E+00   -.112E-03 0.180E-03 -.396E-04
   0.391E+02 -.761E+02 0.696E+02   -.387E+02 0.762E+02 -.693E+02   -.101E+01 0.104E+01 -.176E+01   0.136E-04 0.480E-04 0.143E-03
   -.175E+02 -.666E+02 -.663E+00   0.171E+02 0.664E+02 0.900E+00   0.757E+00 0.163E+01 -.197E+00   -.416E-04 -.204E-03 -.129E-04
   0.750E+01 -.205E+02 0.729E+02   -.748E+01 0.202E+02 -.728E+02   -.740E+00 0.732E+00 -.197E+01   0.958E-04 0.717E-05 0.209E-03
   0.533E+01 0.586E+02 -.202E+02   -.499E+01 -.589E+02 0.200E+02   -.478E+00 -.680E+00 0.296E+00   0.192E-04 0.675E-04 -.910E-04
   -.765E+01 -.423E+02 0.165E+02   0.704E+01 0.421E+02 -.166E+02   0.560E+00 0.559E+00 -.540E-01   -.146E-04 0.246E-04 0.267E-04
   0.518E+02 0.296E+01 0.307E+02   -.521E+02 -.317E+01 -.304E+02   -.132E+00 -.122E-01 -.823E+00   -.117E-04 0.625E-04 0.580E-04
   0.299E+02 0.133E+02 -.151E+02   -.300E+02 -.131E+02 0.146E+02   -.173E-01 -.243E+00 0.115E+01   -.132E-04 -.866E-04 -.110E-03
   0.131E+02 0.461E+01 -.556E+02   -.132E+02 -.469E+01 0.554E+02   0.145E+00 0.610E-01 0.123E+01   -.135E-04 0.106E-04 -.772E-04
   0.480E+01 -.614E+02 0.194E+02   -.441E+01 0.614E+02 -.190E+02   -.687E+00 0.107E+01 -.880E+00   0.602E-04 -.103E-03 0.331E-04
   0.216E+02 0.411E+02 -.106E+02   -.214E+02 -.412E+02 0.108E+02   -.360E+00 -.870E+00 -.135E+00   -.239E-04 0.593E-04 0.147E-04
   0.408E+02 0.264E+02 -.102E+03   -.412E+02 -.267E+02 0.102E+03   0.327E+00 0.391E+00 0.112E+01   -.226E-04 -.677E-04 -.495E-04
   0.939E+02 -.916E+01 0.302E+01   -.933E+02 0.906E+01 -.302E+01   -.194E+01 0.196E+00 -.213E+00   0.131E-03 0.168E-04 -.278E-05
   -.496E+02 0.124E+02 0.359E+02   0.495E+02 -.129E+02 -.360E+02   0.963E+00 0.541E+00 -.547E+00   -.868E-04 -.118E-03 0.842E-05
   -.153E+02 -.439E+02 0.246E+02   0.149E+02 0.439E+02 -.243E+02   0.867E+00 0.321E+00 -.350E+00   -.153E-03 -.342E-04 0.558E-04
   0.873E+02 -.393E+02 0.423E+02   -.864E+02 0.388E+02 -.423E+02   -.202E+01 0.931E+00 -.191E+00   0.103E-03 -.113E-03 0.625E-04
   0.319E+02 -.159E+02 -.341E-01   -.320E+02 0.158E+02 -.216E+00   0.277E+00 0.275E-01 0.415E+00   -.593E-05 0.756E-04 0.142E-04
   0.558E+02 0.196E+02 -.888E+01   -.559E+02 -.191E+02 0.885E+01   -.100E+00 -.819E+00 -.116E+00   0.473E-05 0.735E-04 0.476E-04
   0.103E+02 0.119E+02 0.430E+02   -.104E+02 -.120E+02 -.438E+02   -.180E+00 0.236E+00 0.965E+00   -.473E-04 -.103E-03 -.134E-03
   0.218E+02 0.301E+02 0.443E+02   -.219E+02 -.298E+02 -.445E+02   -.749E-01 -.848E+00 -.260E+00   -.385E-05 0.292E-04 -.625E-04
   -.523E+02 0.802E+02 0.397E+02   0.523E+02 -.799E+02 -.396E+02   0.668E+00 -.134E+01 -.682E+00   0.120E-04 0.386E-04 0.319E-04
   -.224E+02 0.634E+02 0.882E+02   0.224E+02 -.637E+02 -.878E+02   0.452E+00 -.457E+00 -.138E+01   0.518E-04 0.305E-04 0.533E-04
   0.667E+02 0.822E+02 0.252E+02   -.666E+02 -.825E+02 -.254E+02   -.164E+01 -.951E+00 -.573E+00   0.116E-03 -.413E-04 0.110E-03
   0.239E+01 -.408E+02 -.853E+02   -.300E+01 0.406E+02 0.857E+02   0.644E+00 0.151E+01 -.199E+00   -.722E-04 -.171E-03 0.261E-04
   -.673E+02 -.847E+01 -.632E+02   0.676E+02 0.820E+01 0.629E+02   0.113E+01 0.501E+00 0.130E+01   -.830E-04 -.113E-03 -.558E-04
   -.104E+03 -.323E+02 -.254E+01   0.104E+03 0.322E+02 0.281E+01   0.180E+01 0.127E+01 -.316E+00   -.121E-03 -.141E-03 0.635E-04
   0.874E+02 0.561E+02 -.102E+03   -.867E+02 -.556E+02 0.102E+03   -.158E+01 -.112E+01 0.181E+01   0.121E-03 -.163E-05 -.799E-04
   -.769E+01 0.767E+02 0.106E+02   0.728E+01 -.765E+02 -.111E+02   0.671E+00 -.931E+00 0.514E+00   -.331E-04 0.154E-04 -.699E-04
   -.414E+01 -.234E+02 0.136E+02   0.354E+01 0.236E+02 -.135E+02   0.116E+01 0.210E+00 -.493E+00   -.235E-04 -.428E-04 -.848E-05
   0.380E+02 0.453E+02 -.334E+02   -.378E+02 -.451E+02 0.338E+02   -.533E+00 -.637E+00 -.129E+00   0.597E-04 -.269E-04 0.778E-04
   0.800E+02 -.270E+02 0.175E+02   -.795E+02 0.268E+02 -.180E+02   -.193E+01 0.763E+00 0.810E+00   0.172E-03 -.302E-04 -.104E-03
   0.308E+02 -.359E+02 -.105E+02   -.315E+02 0.361E+02 0.101E+02   0.759E+00 -.154E+00 0.571E+00   -.848E-04 0.904E-04 -.828E-05
   -.550E+02 -.474E+02 -.525E+02   0.553E+02 0.475E+02 0.527E+02   0.533E-01 0.174E+00 0.726E+00   0.482E-04 0.725E-04 -.840E-04
   0.255E+02 -.410E+02 0.319E+02   -.252E+02 0.409E+02 -.312E+02   -.656E+00 0.646E+00 -.183E+01   0.779E-04 0.467E-04 0.179E-03
   0.953E+01 -.699E+02 -.267E+02   -.977E+01 0.699E+02 0.264E+02   0.280E+00 0.107E+01 0.964E+00   -.643E-04 -.136E-04 -.916E-04
   -.299E+01 -.961E+02 -.283E+02   0.338E+01 0.956E+02 0.285E+02   -.241E+00 0.174E+01 0.256E+00   -.329E-04 0.261E-04 0.746E-05
   0.236E+02 -.213E+02 -.245E+02   -.239E+02 0.209E+02 0.247E+02   0.818E-01 0.681E+00 -.764E-01   0.656E-04 -.541E-04 0.239E-04
   -.275E+02 -.403E+02 0.352E+02   0.270E+02 0.404E+02 -.352E+02   0.860E+00 0.200E+00 -.602E+00   -.203E-04 0.705E-04 -.695E-05
   -.399E+02 0.330E+02 -.606E+01   0.397E+02 -.326E+02 0.604E+01   0.682E+00 -.120E+01 -.938E-01   -.125E-03 0.160E-03 0.954E-04
   0.701E+01 -.321E+02 -.902E+01   -.646E+01 0.323E+02 0.872E+01   -.557E+00 0.307E-02 0.780E+00   -.174E-04 0.756E-04 -.967E-04
   0.101E+02 0.199E+02 0.714E+02   -.978E+01 -.198E+02 -.710E+02   0.319E-02 -.979E-01 -.149E+01   0.219E-04 -.453E-04 0.111E-03
   0.864E+02 0.239E+02 -.754E+01   -.863E+02 -.236E+02 0.733E+01   -.150E+01 -.886E+00 0.534E+00   0.117E-03 0.101E-03 -.544E-04
 -----------------------------------------------------------------------------------------------
   -.157E+00 0.266E+00 -.481E-01   0.102E-10 0.504E-12 0.426E-12   0.143E+00 -.252E+00 0.705E-01   0.569E-04 0.574E-04 0.201E-04
 
 
 POSITION                                       TOTAL-FORCE (eV/Angst)
 -----------------------------------------------------------------------------------
      0.12542      0.73256      1.45803         0.485144     -0.227133     -0.151264
      0.00355      2.75223      3.65273         0.265682      0.193593     -0.031590
      2.29702      0.67423      3.33888        -0.058249     -0.069820      0.915588
      2.37894      2.73097      1.51952        -1.052264      0.169284      0.239355
      0.06552      0.51868      5.48536        -0.091776      0.774841      0.611454
      0.06148      2.60682      7.68597         0.846098      0.059505     -0.693568
      2.21509      0.47144      7.64985         0.411662      0.909911     -0.310239
      2.15001      2.63789      5.49729        -0.202551     -0.394090      0.282018
      0.41016      0.54348      9.72396        -0.602468      0.886471      0.305067
      0.02127      2.65584     11.77312         0.070115     -0.475714      0.134331
      2.09351      0.43166     11.92505         0.589346      0.916676     -0.402431
      2.30417      2.75629      9.59437        -0.439643     -0.975517      0.284920
      0.03487      4.82694      1.63002        -0.045817     -0.839740     -0.305333
      0.11293      6.82136      3.59131        -0.076365      0.351505      0.504118
      2.29762      4.86747      3.61896        -0.230462     -1.119774     -0.341815
      2.10715      6.68289      1.56785         0.406862      0.413522     -0.727221
      0.32029      4.83363      5.69189        -1.097640     -0.312599     -0.124205
      0.10124      6.97453      7.66515         0.130463     -1.909585     -0.868148
      2.27812      4.72839      7.60506        -0.177432     -0.114115     -0.352769
      2.24953      6.78732      5.54388         0.219202      0.755374      0.444060
      0.22483      4.60425      9.59389        -0.638804      0.746091      0.342875
      0.21170      6.80509     11.77633        -0.024398     -0.417724      0.176395
      1.95164      4.49592     11.91736         0.484726      1.010185     -0.175896
      2.20843      6.62608      9.58214        -1.004941      0.096976      0.591635
      0.23049      8.94298      1.44336         0.207731     -0.261369      0.327404
      0.21995     11.18090      3.45707         0.220146     -1.428426      0.220845
      2.22258      8.84368      3.47244        -0.347039      0.293052      0.958733
      2.34506     10.92812      1.52714        -0.841241     -0.024990      0.444565
     12.21663      8.82596      5.63956         0.451619      0.264113     -0.833959
      0.08492     10.89388      7.70631         0.490860     -0.497106     -0.870617
      2.07485      8.96365      7.39634         0.290548     -0.585155      0.734976
      2.11673     11.02014      5.63265         0.169654     -0.259766     -1.332286
      0.23623      8.69199      9.61780         0.118258      1.265199      1.113061
      0.10631     10.96017     11.78596         0.133162     -0.615717      0.439722
      2.11912      8.95637     11.76709        -0.075262     -0.562653      0.149947
      2.24547     10.88236      9.70993         0.464871     -0.595007     -0.041552
      4.24351      0.69230      1.33945         0.476100     -0.395334      0.692413
      4.34787      2.66577      3.62426         0.491516     -0.203474     -0.493968
      6.43498      0.50560      3.77333        -0.051317     -0.111022     -0.857859
      6.37320      2.50263      1.49410         0.038152      0.123366     -0.003377
      4.28902      0.54197      5.47568        -0.208578     -0.197197      0.575580
      4.23038      2.68656      7.52929         0.243669     -1.126294      0.599294
      6.26574      0.52827      7.94096        -0.163669     -0.115425     -0.863610
      6.49364      2.51953      5.68845        -0.554695      0.526163     -0.256846
      4.15742      0.58851      9.78494        -0.189413     -0.241286      0.017356
      4.17815      2.66535     11.76991        -0.262556     -0.293351      0.227209
      6.19826      0.41381     11.85724         0.747915      0.555308     -0.514784
      6.25972      2.52027      9.93313         0.684633      0.123644     -0.838697
      4.36145      4.66476      1.56516         0.051350      0.249095     -0.243647
      4.34343      6.75395      3.55944         0.122544      0.023626      0.156315
      6.65080      4.81392      3.43399        -0.739587     -0.955568      0.324880
      6.36466      6.63820      1.39503        -0.229837      0.360190     -0.873652
      4.35350      4.52415      5.58910         0.035461      1.074068     -0.586539
      4.24292      6.76127      7.71423         0.027767      0.145959     -0.953365
      6.13140      4.76793      7.67526         0.696771     -0.918264      0.777163
      6.41131      6.56931      5.58058        -0.900550      0.655126     -0.173809
      4.19365      4.69817      9.83427         0.535457     -0.197504     -0.203694
      3.95017      6.66222     11.80102         0.302763      0.037923      0.961918
      6.29377      4.44499     11.80116         0.653623      0.972462      0.264915
      6.10859      6.74630      9.88015         0.704122     -0.364897     -0.195643
      4.15232      8.80119      1.51773         0.426721     -1.167578     -0.338297
      4.48975     10.80855      3.46992        -0.055320      0.291708      0.542515
      6.35183      8.65361      3.35587        -0.252831      0.664922      0.181639
      6.28002     10.71842      1.17459         1.386920      0.380130      2.053185
      4.28933      8.81938      5.69851         0.070369     -0.594057     -1.413414
      4.25199     10.78652      7.50352        -0.101708      0.993429      0.956085
      6.26877      8.82524      7.66318         0.114818     -1.138436      0.726672
      6.52748     10.75265      5.83668        -0.561776      1.061692     -1.419068
      4.03430      8.59770      9.72902         0.281244      1.389829      0.039776
      4.21954     10.75986     11.99941        -0.721972      0.398584     -1.864471
      6.24945      8.77968     11.77521        -0.139874     -0.893275      0.065283
      6.05319     10.72034      9.78333        -0.061158      0.408603     -0.118526
      8.39021      0.45886      1.51739        -0.454517     -0.233096     -0.527730
      8.44117      2.66672      3.38999        -0.152533     -0.000858      0.629914
     10.34969      0.52607      3.46473         0.015881     -0.024553      0.991008
     10.52524      2.52707      1.56148        -0.287687      1.069839     -0.441167
      8.46728      0.56921      5.72234        -0.172264     -0.916405      0.041513
      8.34370      2.53454      7.68599        -0.060832     -0.004888      1.221302
     10.68076      0.54183      7.75768        -1.338641      0.093043     -0.207349
     10.30758      2.54683      5.65636         0.830293      0.080019     -0.653590
      8.29434      0.37206      9.77120         0.437011      0.325325     -0.083542
      8.65709      2.42566     11.84207        -1.146642      0.462991     -0.182952
     10.50058      0.48430     11.74035         0.154988     -0.061553      0.164471
     10.48827      2.66024      9.72825        -0.273773     -0.349488     -0.147318
      8.48328      4.65402      1.26883        -0.271925      0.056795      0.251282
      8.43785      6.88100      3.44345        -0.192328     -0.582046     -0.375351
     10.30970      4.87360      3.69802         0.690449     -0.989606     -0.564752
     10.48027      6.82555      1.59927         0.468739     -0.757344     -1.065406
      8.43458      4.68521      5.75519        -1.578601     -1.260699     -0.832525
      8.18269      6.64271      7.76852         0.025492      1.328058      0.235842
     10.41678      4.59567      7.51013         1.408617      0.235100      0.950713
     10.15652      6.66343      5.72943         1.723910      1.143413     -0.039515
      8.61756      4.75289      9.54280        -0.898216     -0.694520      1.294148
      8.31133      6.82089     11.65090         0.257761     -0.684934      0.094826
     10.42131      4.71666     11.82549         0.566761      0.421390     -0.319832
     10.54154      6.83562      9.77629        -0.395612     -0.493186      0.253995
      8.58922      8.73344      1.28027        -1.489336      0.600348      0.347791
      8.23663     10.76490      3.42836         0.053790     -0.036686      0.159471
     10.43630      8.84524      3.46225         0.384081      0.275730      0.986968
     10.55278     10.83677      1.64330        -0.399576      0.541236     -1.085264
      8.28503      8.61740      5.47097         0.031160      1.025542      0.671463
      8.43506     10.63828      7.72743         0.150408      1.203212      0.455398
     10.31557      8.68312      7.72274        -0.233392      0.269262      0.116604
     10.23375     10.79400      5.66214         0.440932      0.240101     -0.530083
      8.26175      8.93430      9.80147         0.433463     -0.833684     -0.129034
      8.51672     10.83637     11.74190         0.004520      0.206491      0.479650
     10.58013      8.82554     11.92758         0.289551      0.026323     -1.091327
     10.70750     10.91912      9.70377        -1.368799     -0.623838      0.323268
 -----------------------------------------------------------------------------------
    total drift:                               -0.014131      0.013781      0.022396


--------------------------------------------------------------------------------------------------------



  FREE ENERGIE OF THE ION-ELECTRON SYSTEM (eV)
  ---------------------------------------------------
  free  energy   TOTEN  =      -409.11624108 eV

  energy  without entropy=     -409.07746583  energy(sigma->0) =     -409.09685346
 


--------------------------------------------------------------------------------------------------------


    POTLOK:  cpu time      1.3699: real time      1.3699


--------------------------------------------------------------------------------------------------------


 stress matrix after NEB project (eV)
      4.38184     -2.11846     -0.30188
     -2.11846      9.50889      0.92129
     -0.30188      0.92129      6.03826
  FORCES: max atom, RMS     2.506714    1.103678
  FORCE total and by dimension   11.469756    2.053185
  Stress total and by dimension   12.527399    9.508891
     LOOP+:  cpu time   5529.4031: real time   5532.7331
    4ORBIT:  cpu time      0.0000: real time      0.0000

 total amount of memory used by VASP MPI-rank0  1001024. kBytes
=======================================================================

   base      :      30000. kBytes
   nonlr-proj:      20211. kBytes
   fftplans  :      44901. kBytes
   grid      :      17029. kBytes
   one-center:        171. kBytes
   wavefun   :     888712. kBytes
 
  
  
 General timing and accounting informations for this job:
 ========================================================
  
                  Total CPU time used (sec):     5631.079
                            User time (sec):     5627.524
                          System time (sec):        3.555
                         Elapsed time (sec):     5635.339
  
                   Maximum memory used (kb):     1407112.
                   Average memory used (kb):          N/A
  
                          Minor page faults:       730400
                          Major page faults:            0
                 Voluntary context switches:        58909
