 vasp.6.4.2 20Jul23 (build Mar 06 2024 09:06:46) complex                        
  
 executed on             LinuxIFC date 2024.03.31  00:08:54
 running   64 mpi-ranks, on    4 nodes
 distrk:  each k-point on   64 cores,    1 groups
 distr:  one band on NCORE=   8 cores,    8 groups


--------------------------------------------------------------------------------------------------------


 INCAR:
   SYSTEM = Au_FRESH_TRAIN	
   ISMEAR = 0 		
   SIGMA = 0.05           	
   IVDW = 12
   ENCUT = 450
   PREC = Accurate 	
   LASPH = TRUE 		
   NELM = 400
   NELMIN = 5
   EDIFF = 1E-6
   IBRION = 0
   ISIF = 3
   NSW = 0
   EDIFFG = -0.01
   ALGO = Fast
   LREAL = Auto
   LWAVE = False
   LCHARG = False
   AMIN = 0.01
   ADDGRID = TRUE
   NCORE = 8

 POTCAR:    PAW_PBE Au 04Oct2007                  
 POTCAR:    PAW_PBE Au 04Oct2007                  
   VRHFIN =Au: s1d10                                                                                
   LEXCH  = PE                                                                                      
   EATOM  =   926.0867 eV,   68.0654 Ry                                                             
                                                                                                    
   TITEL  = PAW_PBE Au 04Oct2007                                                                    
   LULTRA =        F    use ultrasoft PP ?                                                          
   IUNSCR =        1    unscreen: 0-lin 1-nonlin 2-no                                               
   RPACOR =    2.330    partial core radius                                                         
   POMASS =  196.966; ZVAL   =   11.000    mass and valenz                                          
   RCORE  =    2.500    outmost cutoff radius                                                       
   RWIGS  =    2.840; RWIGS  =    1.503    wigner-seitz radius (au A)                               
   ENMAX  =  229.943; ENMIN  =  172.457 eV                                                          
   ICORE  =        3    local potential                                                             
   LCOR   =        T    correct aug charges                                                         
   LPAW   =        T    paw PP                                                                      
   EAUG   =  356.670                                                                                
   DEXC   =    0.000                                                                                
   RMAX   =    2.562    core radius for proj-oper                                                   
   RAUG   =    1.300    factor for augmentation sphere                                              
   RDEP   =    2.598    radius for radial grids                                                     
   RDEPT  =    2.193    core radius for aug-charge                                                  
                                                                                                    
   Atomic configuration                                                                             
   16 entries                                                                                       
     n  l   j            E        occ.                                                              
     1  0  0.50    -80748.5001   2.0000                                                             
     2  0  0.50    -14244.7466   2.0000                                                             
     2  1  1.50    -12310.9591   6.0000                                                             
     3  0  0.50     -3362.1768   2.0000                                                             
     3  1  1.50     -2801.5463   6.0000                                                             
     3  2  2.50     -2203.8206  10.0000                                                             
     4  0  0.50      -729.8168   2.0000                                                             
     4  1  1.50      -546.0527   6.0000                                                             
     4  2  2.50      -325.7302  10.0000                                                             
     4  3  3.50       -81.1472  14.0000                                                             
     5  0  0.50      -108.3201   2.0000                                                             
     5  1  1.50       -59.7479   6.0000                                                             
     5  2  2.50        -6.8783  10.0000                                                             
     6  0  0.50        -5.7602   1.0000                                                             
     6  1  1.50        -6.8029   0.0000                                                             
     5  3  2.50        -1.3606   0.0000                                                             
   Description                                                                                      
     l       E           TYP  RCUT    TYP  RCUT                                                     
     2     -6.8782861     23  2.500                                                                 
     2     -8.2388687     23  2.500                                                                 
     0     -5.7601759     23  2.500                                                                 
     0     -0.8493231     23  2.500                                                                 
     1     -2.7211652     23  2.500                                                                 
     1     27.2116520     23  2.500                                                                 
     3     -1.3605826     23  2.500                                                                 
  local pseudopotential read in
  partial core-charges read in
  partial kinetic energy density read in
  atomic valenz-charges read in
  non local Contribution for L=           2  read in
    real space projection operators read in
  non local Contribution for L=           2  read in
    real space projection operators read in
  non local Contribution for L=           0  read in
    real space projection operators read in
  non local Contribution for L=           0  read in
    real space projection operators read in
  non local Contribution for L=           1  read in
    real space projection operators read in
  non local Contribution for L=           1  read in
    real space projection operators read in
    PAW grid and wavefunctions read in
 
   number of l-projection  operators is LMAX  =           6
   number of lm-projection operators is LMMAX =          18
 
 Optimization of the real space projectors (new method)

 maximal supplied QI-value         = 15.12
 optimisation between [QCUT,QGAM] = [ 10.73, 21.62] = [ 32.26,130.87] Ry 
 Optimized for a Real-space Cutoff    1.51 Angstroem

   l    n(q)    QCUT    max X(q) W(low)/X(q) W(high)/X(q)  e(spline) 
   2      9    10.734    60.898    0.91E-04    0.24E-03    0.27E-06
   2      9    10.734    58.894    0.92E-04    0.24E-03    0.27E-06
   0     10    10.734   109.617    0.32E-04    0.87E-04    0.14E-06
   0     10    10.734    75.026    0.29E-04    0.84E-04    0.14E-06
   1      9    10.734    16.344    0.16E-03    0.95E-04    0.12E-06
   1      9    10.734    10.160    0.13E-03    0.80E-04    0.97E-07
  PAW_PBE Au 04Oct2007                  :
 energy of atom  1       EATOM= -926.0867
 kinetic energy error for atom=    0.0057 (will be added to EATOM!!)
 
 
 POSCAR: System 3
  positions in cartesian coordinates
  No initial velocities read in
 exchange correlation table for  LEXCH =        8
   RHO(1)=    0.500       N(1)  =     2000
   RHO(2)=  100.500       N(2)  =     4000

 VTST: version 4.1, (05/19/21)

 CHAIN: initializing optimizer
 
 OPT: Using VASP Dynamics algorithm
 CHAIN: Read ICHAIN            0
 
 POSCAR: System 3
  positions in cartesian coordinates
  No initial velocities read in
 


--------------------------------------------------------------------------------------------------------


 ion  position               nearest neighbor table
   1  0.000  0.000  0.000-  67 2.93  37 2.93  42 2.93  31 2.94   7 2.94  12 2.94  32 2.94   6 2.94
                             2 2.94
   2  0.167  0.000  0.000-  68 2.93  38 2.93  37 2.93  32 2.94   8 2.94   7 2.94  33 2.94   3 2.94
                             1 2.94
   3  0.333  0.000  0.000-  69 2.93  39 2.93  38 2.93  33 2.94   9 2.94   8 2.94  34 2.94   2 2.94
                             4 2.94
   4  0.500  0.000  0.000-  70 2.93  40 2.93  39 2.93  10 2.94  34 2.94  35 2.94   9 2.94   5 2.94
                             3 2.94
   5  0.667  0.000  0.000-  71 2.93  41 2.93  40 2.93  11 2.94  35 2.94  36 2.94  10 2.94   4 2.94
                             6 2.94
   6  0.833  0.000  0.000-  72 2.93  42 2.93  41 2.93  12 2.94  36 2.94  31 2.94  11 2.94   1 2.94
                             5 2.94
   7  0.000  0.167  0.000-  37 2.93  43 2.93  48 2.93  13 2.94   1 2.94   2 2.94  18 2.94   8 2.94
                            12 2.94
   8  0.167  0.167  0.000-  38 2.93  44 2.93  43 2.93  14 2.94   2 2.94   3 2.94  13 2.94   7 2.94
                             9 2.94
   9  0.333  0.167  0.000-  39 2.93  45 2.93  44 2.93  15 2.94   3 2.94   4 2.94  14 2.94  10 2.94
                             8 2.94
  10  0.500  0.167  0.000-  40 2.93  46 2.93  45 2.93   4 2.94  16 2.94  15 2.94   5 2.94   9 2.94
                            11 2.94
  11  0.667  0.167  0.000-  41 2.93  47 2.93  46 2.93   5 2.94  17 2.94  16 2.94   6 2.94  12 2.94
                            10 2.94
  12  0.833  0.167  0.000-  42 2.93  48 2.93  47 2.93   6 2.94  18 2.94  17 2.94   1 2.94  11 2.94
                             7 2.94
  13  0.000  0.333  0.000-  43 2.93  49 2.93  54 2.93   7 2.94  19 2.94  24 2.94   8 2.94  18 2.94
                            14 2.94
  14  0.167  0.333  0.000-  44 2.93  50 2.93  49 2.93   8 2.94  20 2.94  19 2.94   9 2.94  13 2.94
                            15 2.94
  15  0.333  0.333  0.000-  45 2.93  51 2.93  50 2.93  21 2.94   9 2.94  10 2.94  20 2.94  16 2.94
                            14 2.94
  16  0.500  0.333  0.000-  46 2.93  52 2.93  51 2.93  22 2.94  10 2.94  11 2.94  21 2.94  17 2.94
                            15 2.94
  17  0.667  0.333  0.000-  47 2.93  53 2.93  52 2.93  23 2.94  11 2.94  12 2.94  22 2.94  18 2.94
                            16 2.94
  18  0.833  0.333  0.000-  48 2.93  54 2.93  53 2.93  24 2.94  12 2.94  23 2.94   7 2.94  13 2.94
                            17 2.94
  19  0.000  0.500  0.000-  49 2.93  55 2.93  60 2.93  13 2.94  30 2.94  14 2.94  29 2.94  24 2.94
                            20 2.94
  20  0.167  0.500  0.000-  50 2.93  56 2.93  55 2.93  14 2.94  25 2.94  15 2.94  30 2.94  19 2.94
                            21 2.94
  21  0.333  0.500  0.000-  51 2.93  57 2.93  56 2.93  15 2.94  26 2.94  16 2.94  25 2.94  22 2.94
                            20 2.94
  22  0.500  0.500  0.000-  52 2.93  58 2.93  57 2.93  16 2.94  27 2.94  17 2.94  26 2.94  21 2.94
                            23 2.94
  23  0.667  0.500  0.000-  53 2.93  59 2.93  58 2.93  17 2.94  28 2.94  18 2.94  27 2.94  24 2.94
                            22 2.94
  24  0.833  0.500  0.000-  54 2.93  60 2.93  59 2.93  18 2.94  29 2.94  13 2.94  28 2.94  19 2.94
                            23 2.94
  25  0.167  0.667  0.000-  56 2.93  62 2.93  61 2.93  32 2.94  20 2.94  31 2.94  21 2.94  26 2.94
                            30 2.94
  26  0.333  0.667  0.000-  57 2.93  63 2.93  62 2.93  33 2.94  21 2.94  32 2.94  22 2.94  27 2.94
                            25 2.94
  27  0.500  0.667  0.000-  58 2.93  64 2.93  63 2.93  34 2.94  22 2.94  33 2.94  23 2.94  26 2.94
                            28 2.94
  28  0.667  0.667  0.000-  59 2.93  65 2.93  64 2.93  35 2.94  23 2.94  34 2.94  24 2.94  29 2.94
                            27 2.94
  29  0.833  0.667  0.000-  60 2.93  66 2.93  65 2.93  36 2.94  24 2.94  35 2.94  19 2.94  30 2.94
                            28 2.94
  30  1.000  0.667  0.000-  55 2.93  61 2.93  66 2.93  31 2.94  19 2.94  36 2.94  20 2.94  29 2.94
                            25 2.94
  31  1.000  0.833  0.000-  61 2.93  67 2.93  72 2.93   1 2.94  30 2.94   6 2.94  25 2.94  36 2.94
                            32 2.94
  32  0.167  0.833  0.000-  62 2.93  68 2.93  67 2.93  25 2.94   2 2.94   1 2.94  26 2.94  33 2.94
                            31 2.94
  33  0.333  0.833  0.000-  63 2.93  69 2.93  68 2.93  26 2.94   3 2.94   2 2.94  27 2.94  32 2.94
                            34 2.94
  34  0.500  0.833  0.000-  64 2.93  70 2.93  69 2.93  27 2.94   4 2.94   3 2.94  28 2.94  33 2.94
                            35 2.94
  35  0.667  0.833  0.000-  65 2.93  71 2.93  70 2.93   5 2.94  28 2.94  29 2.94   4 2.94  36 2.94
                            34 2.94
  36  0.833  0.833  0.000-  66 2.93  72 2.93  71 2.93   6 2.94  29 2.94  30 2.94   5 2.94  31 2.94
                            35 2.94
  37  0.056  0.056  0.034-  94 2.89 107 2.90 105 2.90   7 2.93   1 2.93   2 2.93  67 2.94  43 2.94
                            48 2.94  68 2.94  42 2.94  38 2.94
  38  0.222  0.056  0.034-  84 2.82  94 2.89   8 2.93   2 2.93   3 2.93  68 2.94  44 2.94  43 2.94
                            69 2.94  37 2.94  39 2.94 101 2.97
  39  0.389  0.056  0.034-  86 2.83  95 2.90   9 2.93   3 2.93   4 2.93  45 2.94  69 2.94  70 2.94
                            44 2.94  40 2.94  38 2.94 101 2.97
  40  0.556  0.056  0.034-  95 2.89 102 2.90 106 2.91  10 2.93   4 2.93   5 2.93  46 2.94  70 2.94
                            71 2.94  45 2.94  39 2.94  41 2.94
  41  0.722  0.056  0.034- 102 2.89  97 2.90  91 2.91  11 2.93   5 2.93   6 2.93  71 2.94  47 2.94
                            72 2.94  46 2.94  42 2.94  40 2.94
  42  0.889  0.056  0.034-  97 2.89 105 2.89  93 2.92  12 2.93   6 2.93   1 2.93  72 2.94  48 2.94
                            67 2.94  47 2.94  37 2.94  41 2.94
  43  0.056  0.222  0.034-  85 2.83  94 2.90  13 2.93   7 2.93   8 2.93  37 2.94  49 2.94  38 2.94
                            54 2.94  48 2.94  44 2.94 108 2.97
  44  0.222  0.222  0.034-  14 2.93   8 2.93   9 2.93 108 2.94  38 2.94  50 2.94  39 2.94  49 2.94
                            45 2.94  43 2.94 101 2.95 100 2.96
  45  0.389  0.222  0.034-  81 2.84  95 2.89  15 2.93   9 2.93  10 2.93  39 2.94  51 2.94  40 2.94
                            50 2.94  44 2.94  46 2.94 100 2.97
  46  0.556  0.222  0.034-  81 2.83  73 2.83  16 2.93  10 2.93  11 2.93  40 2.94  52 2.94  41 2.94
                            51 2.94  45 2.94  47 2.94 102 2.96
  47  0.722  0.222  0.034-  75 2.82  73 2.82  17 2.93  11 2.93  12 2.93  41 2.94  53 2.94  42 2.94
                            52 2.94  48 2.94  46 2.94  97 2.99
  48  0.889  0.222  0.034-  85 2.82  75 2.83  18 2.93  12 2.93   7 2.93  42 2.94  54 2.94  37 2.94
                            53 2.94  43 2.94  47 2.94 105 2.96
  49  0.056  0.389  0.034-  88 2.83  96 2.90  19 2.93  13 2.93  14 2.93  55 2.94  43 2.94  60 2.94
                            44 2.94  54 2.94  50 2.94 108 2.97
  50  0.222  0.389  0.034-  83 2.84  96 2.89  20 2.93  14 2.93  15 2.93  56 2.94  44 2.94  55 2.94
                            45 2.94  51 2.94  49 2.94 100 2.97
  51  0.389  0.389  0.034-  82 2.81  21 2.93  15 2.93  16 2.93  81 2.94  57 2.94  45 2.94  56 2.94
                            46 2.94  52 2.94  50 2.94  83 2.95
  52  0.556  0.389  0.034-  90 2.81  82 2.83  22 2.93  16 2.93  17 2.93  58 2.94  46 2.94  57 2.94
                            47 2.94  51 2.94  53 2.94  73 2.97
  53  0.722  0.389  0.034-  90 2.81  80 2.83  23 2.93  17 2.93  18 2.93  59 2.94  47 2.94  58 2.94
                            48 2.94  52 2.94  54 2.94  75 2.97
  54  0.889  0.389  0.034-  80 2.80  24 2.93  18 2.93  13 2.93  60 2.94  48 2.94  59 2.94  43 2.94
                            49 2.94  53 2.94  88 2.94  85 2.95
  55  0.056  0.556  0.034-  96 2.88 104 2.90 103 2.91  30 2.93  19 2.93  20 2.93  61 2.94  49 2.94
                            66 2.94  50 2.94  60 2.94  56 2.94
  56  0.222  0.556  0.034-  74 2.82  83 2.83  25 2.93  20 2.93  21 2.93  50 2.94  62 2.94  61 2.94
                            51 2.94  55 2.94  57 2.94 103 2.97
  57  0.389  0.556  0.034-  89 2.82  82 2.84  26 2.93  21 2.93  22 2.93  51 2.94  63 2.94  62 2.94
                            52 2.94  56 2.94  58 2.94  74 2.96
  58  0.556  0.556  0.034-  87 2.84  90 2.85  89 2.86  27 2.93  22 2.93  23 2.93  64 2.94  52 2.94
                            53 2.94  63 2.94  59 2.94  57 2.94
  59  0.722  0.556  0.034-  87 2.81  80 2.83  28 2.93  23 2.93  24 2.93  65 2.94  53 2.94  54 2.94
                            64 2.94  60 2.94  58 2.94  78 2.98
  60  0.889  0.556  0.034-  78 2.82  88 2.83  29 2.93  24 2.93  19 2.93  66 2.94  54 2.94  49 2.94
                            65 2.94  55 2.94  59 2.94 104 2.97
  61  0.056  0.722  0.034- 103 2.89  98 2.89  92 2.91  31 2.93  30 2.93  25 2.93  67 2.94  55 2.94
                            56 2.94  72 2.94  66 2.94  62 2.94
  62  0.222  0.722  0.034-  74 2.81  76 2.82  32 2.93  25 2.93  26 2.93  68 2.94  56 2.94  57 2.94
                            67 2.94  61 2.94  63 2.94  98 2.98
  63  0.389  0.722  0.034-  79 2.82  89 2.86  33 2.93  26 2.93  27 2.93  57 2.94  69 2.94  58 2.94
                            68 2.94  62 2.94  64 2.94  76 2.97
  64  0.556  0.722  0.034-  87 2.80  79 2.83  34 2.93  27 2.93  28 2.93  58 2.94  70 2.94  69 2.94
                            59 2.94  65 2.94  63 2.94  77 2.97
  65  0.722  0.722  0.034-  77 2.81  78 2.82  35 2.93  28 2.93  29 2.93  59 2.94  71 2.94  70 2.94
                            60 2.94  64 2.94  66 2.94  99 2.98
  66  0.889  0.722  0.034-  99 2.88 104 2.90  92 2.92  36 2.93  29 2.93  30 2.93  72 2.94  60 2.94
                            55 2.94  71 2.94  61 2.94  65 2.94
  67  0.056  0.889  0.034-  98 2.88 107 2.90  93 2.91   1 2.93  31 2.93  32 2.93  61 2.94  37 2.94
                            42 2.94  62 2.94  72 2.94  68 2.94
  68  0.222  0.889  0.034-  76 2.81  84 2.83   2 2.93  32 2.93  33 2.93  62 2.94  38 2.94  37 2.94
                            63 2.94  67 2.94  69 2.94 107 2.96
  69  0.389  0.889  0.034-  79 2.80   3 2.93  33 2.93  34 2.93  84 2.94  39 2.94  63 2.94  64 2.94
                            38 2.94  70 2.94  68 2.94  86 2.95
  70  0.556  0.889  0.034-  77 2.82  86 2.83   4 2.93  34 2.93  35 2.93  40 2.94  64 2.94  65 2.94
                            39 2.94  69 2.94  71 2.94 106 2.97
  71  0.722  0.889  0.034-  99 2.88 106 2.90  91 2.91   5 2.93  35 2.93  36 2.93  41 2.94  65 2.94
                            40 2.94  66 2.94  72 2.94  70 2.94
  72  0.889  0.889  0.034-  92 2.90  91 2.90  93 2.90   6 2.93  36 2.93  31 2.93  66 2.94  42 2.94
                            61 2.94  41 2.94  67 2.94  71 2.94
  73  0.617  0.267  0.067- 110 2.75 119 2.79  47 2.82  46 2.83 102 2.86  97 2.89  75 2.93  81 2.94
                            52 2.97  90 3.04  82 3.08
  74  0.267  0.617  0.067- 111 2.75 118 2.78  62 2.81  56 2.82 103 2.87  98 2.89  76 2.94  83 2.95
                            57 2.96  89 3.04  82 3.10
  75  0.783  0.267  0.067- 115 2.75 119 2.78  47 2.82  48 2.83 105 2.86  97 2.89  73 2.93  85 2.94
                            53 2.97  90 3.05  80 3.09
  76  0.267  0.784  0.067- 112 2.74 118 2.77  68 2.81  62 2.82 107 2.86  98 2.89  74 2.94  84 2.94
                            63 2.97  79 3.08  89 3.09
  77  0.617  0.783  0.067- 113 2.75 120 2.77  65 2.81  70 2.82 106 2.86  99 2.89  78 2.94  86 2.95
                            64 2.97  87 3.05  79 3.11
  78  0.784  0.617  0.067- 116 2.75 120 2.77  60 2.82  65 2.82 104 2.85  99 2.89  77 2.94  88 2.94
                            59 2.98  87 3.07  80 3.10
  79  0.443  0.780  0.066-  69 2.80  63 2.82 121 2.83  64 2.83 112 2.89 113 2.90  87 2.96  89 3.00
                            84 3.03  86 3.04  76 3.08  77 3.11
  80  0.780  0.443  0.066-  54 2.80  53 2.83  59 2.83 123 2.83 116 2.90 115 2.90  90 2.97  87 2.98
                            85 3.03  88 3.03  75 3.09  78 3.10
  81  0.449  0.270  0.067- 109 2.78 110 2.82  46 2.83  45 2.84  95 2.84 102 2.91  51 2.94  73 2.94
                           100 2.97  82 3.01  83 3.17
  82  0.444  0.443  0.066-  51 2.81  52 2.83  57 2.84 122 2.85 111 2.89 110 2.91  89 2.94  90 2.97
                            81 3.01  83 3.03  73 3.08  74 3.10
  83  0.269  0.449  0.067- 109 2.78 111 2.82  56 2.83  96 2.83  50 2.84 103 2.90  74 2.95  51 2.95
                           100 2.97  82 3.03  81 3.17
  84  0.269  0.949  0.067- 114 2.79 112 2.82  38 2.82  94 2.83  68 2.83 107 2.91  69 2.94  76 2.94
                           101 2.97  79 3.03  86 3.17
  85  0.948  0.269  0.067- 117 2.78 115 2.82  48 2.82  43 2.83  94 2.83 105 2.90  75 2.94  54 2.95
                           108 2.99  80 3.03  88 3.18
  86  0.449  0.949  0.067- 114 2.77 113 2.82  70 2.83  95 2.83  39 2.83 106 2.90  77 2.95  69 2.95
                           101 2.97  79 3.04  84 3.17
  87  0.612  0.613  0.066-  64 2.80  59 2.81 123 2.82 121 2.83  58 2.84 120 2.92  79 2.96  80 2.98
                            89 3.02  90 3.02  77 3.05  78 3.07
  88  0.949  0.449  0.067- 117 2.78 116 2.81  60 2.83  49 2.83  96 2.84 104 2.90  78 2.94  54 2.94
                           108 2.97  80 3.03  85 3.18
  89  0.443  0.610  0.067- 121 2.81  57 2.82  63 2.86  58 2.86 122 2.88 118 2.90  82 2.94  90 2.99
                            79 3.00  87 3.02  74 3.04  76 3.09
  90  0.613  0.441  0.066-  53 2.81  52 2.81 123 2.83  58 2.85 122 2.85 119 2.91  82 2.97  80 2.97
                            89 2.99  87 3.02  73 3.04  75 3.05
  91  0.779  0.944  0.068-  97 2.85  99 2.85 102 2.88 106 2.89  72 2.90  41 2.91  71 2.91  92 2.92
                            93 2.92
  92  0.944  0.779  0.068-  99 2.85  98 2.86 103 2.89 104 2.89  72 2.90  93 2.91  61 2.91  91 2.92
                            66 2.92
  93  0.944  0.944  0.068-  98 2.85  97 2.85 105 2.88 107 2.89  72 2.90  92 2.91  67 2.91  91 2.92
                            42 2.92
  94  0.111  0.111  0.068-  84 2.83  85 2.83  37 2.89  38 2.89  43 2.90 107 2.94 105 2.95 108 2.96
                           101 2.96
  95  0.445  0.111  0.068-  86 2.83  81 2.84  40 2.89  45 2.89  39 2.90 106 2.95 102 2.95 100 2.95
                           101 2.95
  96  0.111  0.445  0.068-  83 2.83  88 2.84  55 2.88  50 2.89  49 2.90 103 2.94 104 2.94 100 2.96
                           108 2.96
  97  0.782  0.104  0.068-  91 2.85  93 2.85  75 2.89  73 2.89  42 2.89  41 2.90 105 2.92 102 2.93
                            47 2.99
  98  0.104  0.782  0.068-  93 2.85  92 2.86  67 2.88  74 2.89  76 2.89  61 2.89 107 2.93 103 2.94
                            62 2.98
  99  0.781  0.781  0.068-  91 2.85  92 2.85  71 2.88  66 2.88  78 2.89  77 2.89 106 2.93 104 2.94
                            65 2.98
 100  0.277  0.277  0.069- 109 2.84 101 2.90 108 2.90  95 2.95  96 2.96  44 2.96  83 2.97  45 2.97
                            50 2.97  81 2.97
 101  0.277  0.113  0.069- 114 2.82 108 2.89 100 2.90  44 2.95  95 2.95  94 2.96  84 2.97  39 2.97
                            86 2.97  38 2.97
 102  0.615  0.106  0.068- 106 2.82  73 2.86  91 2.88  41 2.89  40 2.90  81 2.91  97 2.93  95 2.95
                            46 2.96
 103  0.106  0.614  0.068- 104 2.82  74 2.87  92 2.89  61 2.89  83 2.90  55 2.91  98 2.94  96 2.94
                            56 2.97
 104  0.947  0.614  0.068- 103 2.82  78 2.85  92 2.89  66 2.90  88 2.90  55 2.90  99 2.94  96 2.94
                            60 2.97
 105  0.946  0.106  0.068- 107 2.82  75 2.86  93 2.88  42 2.89  85 2.90  37 2.90  97 2.92  94 2.95
                            48 2.96
 106  0.614  0.946  0.068- 102 2.82  77 2.86  91 2.89  71 2.90  86 2.90  40 2.91  99 2.93  95 2.95
                            70 2.97
 107  0.106  0.947  0.068- 105 2.82  76 2.86  93 2.89  67 2.90  37 2.90  84 2.91  98 2.93  94 2.94
                            68 2.96
 108  0.113  0.277  0.069- 117 2.82 101 2.89 100 2.90  44 2.94  96 2.96  94 2.96  49 2.97  43 2.97
                            88 2.97  85 2.99
 109  0.340  0.340  0.099- 124 2.74  83 2.78  81 2.78 100 2.84 110 2.86 111 2.87
 110  0.510  0.323  0.099-  73 2.75 127 2.77 124 2.79  81 2.82 109 2.86 119 2.86  82 2.91 122 2.96
                           111 3.28
 111  0.325  0.510  0.098-  74 2.75 128 2.76 124 2.76  83 2.82 118 2.87 109 2.87  82 2.89 122 3.01
                           110 3.28
 112  0.324  0.834  0.098-  76 2.74 129 2.75 125 2.79  84 2.82 118 2.84 114 2.88  79 2.89 121 3.02
                           113 3.26
 113  0.510  0.832  0.098-  77 2.75 131 2.75 125 2.77  86 2.82 120 2.86 114 2.89  79 2.90 121 3.02
                           112 3.26
 114  0.340  0.989  0.099- 125 2.74  86 2.77  84 2.79 101 2.82 112 2.88 113 2.89
 115  0.833  0.324  0.099-  75 2.75 130 2.75 126 2.79  85 2.82 119 2.85 117 2.88  80 2.90 123 3.04
                           116 3.26
 116  0.834  0.508  0.098-  78 2.75 132 2.75 126 2.77  88 2.81 117 2.87 120 2.87  80 2.90 123 3.02
                           115 3.26
 117  0.989  0.339  0.099- 126 2.72  85 2.78  88 2.78 108 2.82 116 2.87 115 2.88
 118  0.321  0.674  0.099- 128 2.74 129 2.76  76 2.77  74 2.78 112 2.84 111 2.87  89 2.90 121 3.08
                           122 3.19
 119  0.673  0.322  0.099- 130 2.75 127 2.75  75 2.78  73 2.79 115 2.85 110 2.86  90 2.91 122 3.02
                           123 3.10
 120  0.673  0.673  0.098- 131 2.74 132 2.75  78 2.77  77 2.77 113 2.86 116 2.87  87 2.92 123 3.09
                           121 3.13
 121  0.499  0.667  0.098- 133 2.80  89 2.81  87 2.83  79 2.83 129 2.92 131 2.93 123 2.94 122 3.01
                           112 3.02 113 3.02 118 3.08 120 3.13
 122  0.503  0.494  0.099- 133 2.78  90 2.85  82 2.85  89 2.88 128 2.92 123 2.96 127 2.96 110 2.96
                           111 3.01 121 3.01 119 3.02 118 3.19
 123  0.667  0.501  0.098- 133 2.82  87 2.82  90 2.83  80 2.83 130 2.90 132 2.93 121 2.94 122 2.96
                           116 3.02 115 3.04 120 3.09 119 3.10
 124  0.395  0.398  0.129- 134 2.73 109 2.74 111 2.76 110 2.79 128 2.84 127 2.88
 125  0.396  0.877  0.129- 136 2.72 114 2.74 113 2.77 112 2.79 129 2.84 131 2.85
 126  0.879  0.394  0.129- 135 2.72 117 2.72 116 2.77 115 2.79 130 2.85 132 2.86
 127  0.571  0.367  0.131- 119 2.75 138 2.76 110 2.77 134 2.84 130 2.85 124 2.88 122 2.96 133 3.21
                           128 3.51
 128  0.374  0.568  0.130- 137 2.74 118 2.74 111 2.76 134 2.76 129 2.82 124 2.84 122 2.92 133 3.09
                           127 3.51
 129  0.376  0.727  0.130- 137 2.72 112 2.75 118 2.76 136 2.79 128 2.82 125 2.84 121 2.92 133 3.10
                           131 3.35
 130  0.726  0.379  0.130- 138 2.74 119 2.75 115 2.75 135 2.79 127 2.85 126 2.85 123 2.90 133 3.07
                           132 3.30
 131  0.566  0.725  0.130- 139 2.73 120 2.74 113 2.75 136 2.77 132 2.83 125 2.85 121 2.93 133 3.09
                           129 3.35
 132  0.727  0.565  0.130- 139 2.72 120 2.75 116 2.75 135 2.79 131 2.83 126 2.86 123 2.93 133 3.13
                           130 3.30
 133  0.555  0.556  0.130- 122 2.78 121 2.80 123 2.82 138 2.82 137 2.94 139 2.96 130 3.07 131 3.09
                           128 3.09 129 3.10 132 3.13 127 3.21
 134  0.445  0.454  0.160- 140 2.69 124 2.73 128 2.76 137 2.83 127 2.84 138 2.90
 135  0.773  0.448  0.160- 141 2.69 126 2.72 130 2.79 132 2.79 138 2.86 139 2.87
 136  0.451  0.770  0.160- 142 2.69 125 2.72 131 2.77 129 2.79 137 2.85 139 2.87
 137  0.427  0.622  0.162- 129 2.72 128 2.74 140 2.76 142 2.78 134 2.83 136 2.85 133 2.94 138 3.32
                           139 3.43
 138  0.617  0.437  0.161- 130 2.74 140 2.76 141 2.76 127 2.76 133 2.82 135 2.86 134 2.90 139 3.27
                           137 3.32
 139  0.622  0.620  0.161- 132 2.72 131 2.73 142 2.76 141 2.78 136 2.87 135 2.87 133 2.96 138 3.27
                           137 3.43
 140  0.501  0.504  0.191- 134 2.69 143 2.71 138 2.76 137 2.76 142 2.87 141 2.93
 141  0.669  0.501  0.191- 135 2.69 143 2.71 138 2.76 139 2.78 142 2.90 140 2.93
 142  0.504  0.665  0.191- 136 2.69 143 2.72 139 2.76 137 2.78 140 2.87 141 2.90
 143  0.559  0.555  0.222- 144 2.57 141 2.71 140 2.71 142 2.72
 144  0.547  0.561  0.258- 143 2.57 147 2.71 146 2.72 145 2.72
 145  0.601  0.449  0.289- 151 2.70 144 2.72 149 2.75 150 2.77 146 2.88 147 2.94
 146  0.440  0.614  0.289- 152 2.68 144 2.72 149 2.77 148 2.77 147 2.88 145 2.88
 147  0.602  0.616  0.289- 153 2.69 144 2.71 148 2.76 150 2.77 146 2.88 145 2.94
 148  0.486  0.688  0.319- 155 2.71 159 2.72 147 2.76 146 2.77 152 2.86 153 2.87 154 2.96 150 3.27
                           149 3.43
 149  0.486  0.494  0.319- 156 2.72 158 2.74 145 2.75 146 2.77 151 2.83 152 2.86 154 2.95 150 3.25
                           148 3.43
 150  0.667  0.499  0.319- 160 2.75 145 2.77 147 2.77 157 2.78 154 2.81 153 2.86 151 2.88 149 3.25
                           148 3.27
 151  0.654  0.342  0.319- 145 2.70 161 2.73 158 2.75 149 2.83 157 2.85 150 2.88
 152  0.337  0.666  0.320- 146 2.68 162 2.71 155 2.77 156 2.78 148 2.86 149 2.86
 153  0.659  0.665  0.319- 147 2.69 163 2.72 159 2.79 160 2.79 150 2.86 148 2.87
 154  0.551  0.557  0.350- 165 2.77 167 2.78 164 2.81 150 2.81 149 2.95 148 2.96 160 3.06 156 3.06
                           158 3.08 155 3.09 159 3.11 157 3.30
 155  0.382  0.738  0.350- 148 2.71 171 2.75 166 2.75 152 2.77 159 2.83 162 2.86 165 2.94 154 3.09
                           156 3.35
 156  0.382  0.548  0.350- 149 2.72 169 2.75 173 2.75 152 2.78 158 2.83 162 2.86 165 2.92 154 3.06
                           155 3.35
 157  0.745  0.378  0.348- 175 2.77 150 2.78 168 2.78 161 2.85 151 2.85 160 2.86 167 3.00 154 3.30
                           158 3.51
 158  0.542  0.387  0.350- 169 2.73 149 2.74 151 2.75 176 2.75 156 2.83 161 2.86 167 2.91 154 3.08
                           157 3.51
 159  0.543  0.737  0.350- 148 2.72 166 2.74 177 2.76 153 2.79 155 2.83 163 2.85 164 2.93 154 3.11
                           160 3.30
 160  0.728  0.548  0.350- 150 2.75 168 2.75 178 2.76 153 2.79 163 2.85 157 2.86 164 2.89 154 3.06
                           159 3.30
 161  0.713  0.236  0.351- 151 2.73 172 2.74 176 2.77 175 2.79 157 2.85 158 2.86
 162  0.231  0.718  0.351- 152 2.71 170 2.71 171 2.77 173 2.77 156 2.86 155 2.86
 163  0.714  0.716  0.351- 153 2.72 174 2.74 177 2.78 178 2.78 160 2.85 159 2.85
 164  0.609  0.612  0.382- 197 2.80 154 2.81 198 2.83 206 2.83 160 2.89 159 2.93 165 2.94 167 2.96
                           177 3.01 178 3.03 166 3.11 168 3.14
 165  0.443  0.611  0.382- 154 2.77 200 2.80 207 2.82 197 2.82 156 2.92 164 2.94 155 2.94 173 3.03
                           167 3.03 171 3.04 169 3.09 166 3.14
 166  0.436  0.792  0.381- 159 2.74 155 2.75 213 2.76 214 2.78 177 2.87 171 2.87 197 2.93 164 3.11
                           165 3.14
 167  0.616  0.441  0.381- 154 2.78 198 2.85 208 2.85 200 2.88 158 2.91 164 2.96 175 2.96 176 3.00
                           157 3.00 165 3.03 168 3.03 169 3.19
 168  0.790  0.438  0.381- 160 2.75 157 2.78 212 2.78 211 2.79 178 2.84 175 2.85 198 2.94 167 3.03
                           164 3.14
 169  0.437  0.439  0.381- 158 2.73 156 2.75 209 2.77 210 2.78 176 2.86 173 2.87 200 2.91 165 3.09
                           167 3.19
 170  0.120  0.774  0.382- 162 2.71 204 2.78 199 2.79 179 2.81 171 2.89 173 2.89
 171  0.276  0.788  0.382- 213 2.74 155 2.75 162 2.77 204 2.80 166 2.87 170 2.89 207 2.90 165 3.04
                           173 3.27
 172  0.771  0.124  0.381- 161 2.74 203 2.78 201 2.79 184 2.84 175 2.86 176 2.88
 173  0.276  0.603  0.382- 209 2.74 156 2.75 162 2.77 199 2.80 169 2.87 170 2.89 207 2.89 165 3.03
                           171 3.27
 174  0.771  0.771  0.381- 163 2.74 202 2.78 205 2.78 187 2.85 177 2.87 178 2.88
 175  0.788  0.277  0.381- 212 2.76 157 2.77 161 2.79 203 2.83 168 2.85 172 2.86 208 2.92 167 2.96
                           176 3.28
 176  0.601  0.280  0.382- 210 2.74 158 2.75 161 2.77 201 2.82 169 2.86 172 2.88 208 2.89 167 3.00
                           175 3.28
 177  0.601  0.787  0.382- 214 2.75 159 2.76 163 2.78 205 2.81 166 2.87 174 2.87 206 2.89 164 3.01
                           178 3.27
 178  0.785  0.601  0.381- 211 2.75 160 2.76 163 2.78 168 2.84 202 2.84 174 2.88 206 2.90 164 3.03
                           177 3.27
 179  0.996  0.835  0.411- 170 2.81 184 2.89 187 2.89 250 2.92 193 2.95 191 2.96 245 2.97 239 2.97
                           199 2.98 204 2.98
 180  0.005  0.165  0.412- 185 2.81 212 2.86 196 2.90 221 2.90 215 2.90 203 2.90 189 2.93 193 2.94
                           226 2.96
 181  0.497  0.165  0.412- 186 2.82 210 2.86 223 2.89 195 2.89 201 2.90 218 2.90 188 2.93 192 2.95
                           224 2.96
 182  0.005  0.497  0.412- 183 2.82 211 2.87 194 2.89 227 2.89 202 2.89 233 2.90 189 2.93 191 2.94
                           238 2.96
 183  0.164  0.497  0.412- 182 2.82 209 2.87 194 2.89 228 2.90 233 2.90 199 2.90 188 2.93 191 2.95
                           234 2.97
 184  0.833  0.999  0.411- 172 2.84 179 2.89 187 2.91 192 2.95 250 2.96 193 2.96 201 2.96 219 2.96
                           203 2.97 220 2.97
 185  0.164  0.006  0.412- 180 2.81 213 2.86 196 2.89 216 2.89 215 2.90 204 2.90 190 2.94 193 2.95
                           246 2.97
 186  0.497  0.006  0.412- 181 2.82 214 2.87 195 2.88 217 2.89 218 2.90 205 2.91 190 2.94 192 2.95
                           248 2.97
 187  0.833  0.834  0.411- 174 2.85 179 2.89 184 2.91 191 2.95 192 2.95 250 2.96 249 2.97 205 2.97
                           244 2.97 202 2.98
 188  0.330  0.330  0.412- 195 2.85 194 2.86 228 2.88 210 2.89 209 2.89 223 2.89 183 2.93 181 2.93
                           229 2.98
 189  0.007  0.330  0.412- 196 2.85 194 2.85 211 2.88 212 2.89 221 2.89 227 2.89 182 2.93 180 2.93
                           232 2.98
 190  0.330  0.007  0.412- 196 2.85 195 2.85 214 2.88 213 2.88 216 2.88 217 2.89 186 2.94 185 2.94
                           247 2.98
 191  0.999  0.666  0.412- 202 2.83 199 2.84 244 2.88 233 2.89 239 2.90 182 2.94 187 2.95 183 2.95
                           179 2.96
 192  0.666  0.000  0.412- 201 2.84 205 2.84 218 2.89 249 2.90 219 2.90 184 2.95 181 2.95 186 2.95
                           187 2.95
 193  1.000  0.001  0.412- 204 2.83 203 2.83 215 2.89 220 2.89 245 2.90 180 2.94 185 2.95 179 2.95
                           184 2.96
 194  0.167  0.332  0.412- 189 2.85 188 2.86 182 2.89 183 2.89 222 2.90 196 2.90 195 2.91 227 2.91
                           228 2.91
 195  0.332  0.167  0.412- 190 2.85 188 2.85 186 2.88 181 2.89 222 2.89 194 2.91 196 2.91 223 2.91
                           217 2.91
 196  0.167  0.168  0.412- 190 2.85 189 2.85 185 2.89 180 2.90 222 2.90 194 2.90 195 2.91 221 2.91
                           216 2.92
 197  0.498  0.669  0.414- 164 2.80 241 2.80 242 2.82 165 2.82 236 2.85 166 2.93 207 2.97 206 2.98
                           200 3.02 198 3.03 213 3.05 214 3.06
 198  0.669  0.498  0.413- 231 2.81 237 2.82 164 2.83 167 2.85 236 2.85 168 2.94 208 2.96 206 2.98
                           200 2.98 197 3.03 211 3.04 212 3.04
 199  0.161  0.663  0.413- 170 2.79 173 2.80 239 2.81 234 2.83 191 2.84 183 2.90 240 2.94 209 2.95
                           179 2.98 207 3.03 204 3.17
 200  0.501  0.497  0.413- 165 2.80 230 2.81 235 2.85 236 2.86 167 2.88 169 2.91 208 2.94 198 2.98
                           207 3.01 197 3.02 210 3.04 209 3.08
 201  0.662  0.163  0.413- 172 2.79 176 2.82 224 2.83 219 2.84 192 2.84 181 2.90 225 2.94 210 2.95
                           184 2.96 208 3.03 203 3.16
 202  0.841  0.661  0.413- 174 2.78 191 2.83 238 2.83 178 2.84 244 2.85 182 2.89 211 2.94 243 2.95
                           187 2.98 206 3.02 205 3.17
 203  0.841  0.163  0.413- 172 2.78 175 2.83 226 2.83 193 2.83 220 2.84 180 2.90 225 2.94 212 2.94
                           184 2.97 208 3.00 201 3.16
 204  0.161  0.843  0.413- 170 2.78 171 2.80 245 2.81 246 2.82 193 2.83 185 2.90 240 2.94 213 2.96
                           179 2.98 207 3.04 199 3.17
 205  0.662  0.841  0.413- 174 2.78 177 2.81 248 2.83 249 2.84 192 2.84 186 2.91 243 2.94 214 2.95
                           187 2.97 206 3.02 202 3.17
 206  0.668  0.668  0.414- 243 2.80 237 2.83 242 2.83 164 2.83 177 2.89 178 2.90 198 2.98 197 2.98
                           202 3.02 205 3.02 211 3.09 214 3.10
 207  0.331  0.668  0.414- 240 2.79 165 2.82 235 2.82 241 2.83 173 2.89 171 2.90 197 2.97 200 3.01
                           199 3.03 204 3.04 209 3.08 213 3.11
 208  0.668  0.331  0.413- 225 2.80 231 2.83 230 2.84 167 2.85 176 2.89 175 2.92 200 2.94 198 2.96
                           203 3.00 201 3.03 212 3.08 210 3.11
 209  0.328  0.495  0.413- 173 2.74 169 2.77 234 2.81 229 2.81 183 2.87 188 2.89 210 2.93 199 2.95
                           235 2.96 207 3.08 200 3.08
 210  0.494  0.329  0.413- 176 2.74 169 2.78 229 2.81 224 2.82 181 2.86 188 2.89 209 2.93 201 2.95
                           230 2.96 200 3.04 208 3.11
 211  0.844  0.494  0.413- 178 2.75 168 2.79 232 2.82 238 2.84 182 2.87 189 2.88 212 2.92 202 2.94
                           237 2.97 198 3.04 206 3.09
 212  0.844  0.328  0.413- 175 2.76 168 2.78 232 2.83 226 2.84 180 2.86 189 2.89 211 2.92 203 2.94
                           231 2.98 198 3.04 208 3.08
 213  0.328  0.845  0.413- 171 2.74 166 2.76 247 2.81 246 2.81 185 2.86 190 2.88 214 2.93 204 2.96
                           241 2.96 197 3.05 207 3.11
 214  0.494  0.845  0.413- 177 2.75 166 2.78 247 2.81 248 2.82 186 2.87 190 2.88 213 2.93 205 2.95
                           242 2.97 197 3.06 206 3.10
 215  0.056  0.056  0.446- 193 2.89 185 2.90 180 2.90 281 2.93 251 2.93 256 2.93 221 2.94 245 2.94
                           246 2.94 226 2.94 216 2.94 220 2.94
 216  0.222  0.056  0.446- 190 2.88 185 2.89 196 2.92 282 2.93 252 2.93 251 2.93 222 2.94 246 2.94
                           247 2.94 221 2.94 217 2.94 215 2.94
 217  0.389  0.056  0.446- 190 2.89 186 2.89 195 2.91 283 2.93 253 2.93 252 2.93 247 2.94 223 2.94
                           222 2.94 248 2.94 216 2.94 218 2.94
 218  0.556  0.056  0.446- 192 2.89 186 2.90 181 2.90 284 2.93 254 2.93 253 2.93 248 2.94 224 2.94
                           223 2.94 249 2.94 219 2.94 217 2.94
 219  0.722  0.056  0.446- 201 2.84 192 2.90 285 2.93 255 2.93 254 2.93 249 2.94 225 2.94 224 2.94
                           250 2.94 218 2.94 220 2.94 184 2.96
 220  0.889  0.056  0.446- 203 2.84 193 2.89 286 2.93 256 2.93 255 2.93 226 2.94 250 2.94 245 2.94
                           225 2.94 215 2.94 219 2.94 184 2.97
 221  0.056  0.222  0.446- 189 2.89 180 2.90 196 2.91 251 2.93 257 2.93 262 2.93 215 2.94 227 2.94
                           232 2.94 216 2.94 222 2.94 226 2.94
 222  0.222  0.222  0.446- 195 2.89 194 2.90 196 2.90 252 2.93 258 2.93 257 2.93 216 2.94 228 2.94
                           217 2.94 227 2.94 223 2.94 221 2.94
 223  0.389  0.222  0.446- 188 2.89 181 2.89 195 2.91 253 2.93 259 2.93 258 2.93 229 2.94 217 2.94
                           218 2.94 228 2.94 224 2.94 222 2.94
 224  0.556  0.222  0.446- 210 2.82 201 2.83 254 2.93 260 2.93 259 2.93 218 2.94 230 2.94 219 2.94
                           229 2.94 223 2.94 225 2.94 181 2.96
 225  0.722  0.222  0.446- 208 2.80 255 2.93 261 2.93 260 2.93 203 2.94 231 2.94 219 2.94 230 2.94
                           220 2.94 226 2.94 224 2.94 201 2.94
 226  0.889  0.222  0.446- 203 2.83 212 2.84 256 2.93 262 2.93 261 2.93 220 2.94 232 2.94 231 2.94
                           215 2.94 225 2.94 221 2.94 180 2.96
 227  0.056  0.389  0.446- 189 2.89 182 2.89 194 2.91 257 2.93 263 2.93 268 2.93 221 2.94 233 2.94
                           222 2.94 238 2.94 228 2.94 232 2.94
 228  0.222  0.389  0.446- 188 2.88 183 2.90 194 2.91 258 2.93 264 2.93 263 2.93 222 2.94 234 2.94
                           223 2.94 233 2.94 229 2.94 227 2.94
 229  0.389  0.389  0.446- 210 2.81 209 2.81 259 2.93 265 2.93 264 2.93 223 2.94 235 2.94 224 2.94
                           234 2.94 228 2.94 230 2.94 188 2.98
 230  0.556  0.389  0.446- 200 2.81 208 2.84 260 2.93 266 2.93 265 2.93 224 2.94 236 2.94 225 2.94
                           235 2.94 231 2.94 229 2.94 210 2.96
 231  0.722  0.389  0.446- 198 2.81 208 2.83 261 2.93 267 2.93 266 2.93 225 2.94 237 2.94 226 2.94
                           236 2.94 232 2.94 230 2.94 212 2.98
 232  0.889  0.389  0.446- 211 2.82 212 2.83 262 2.93 268 2.93 267 2.93 226 2.94 238 2.94 221 2.94
                           237 2.94 231 2.94 227 2.94 189 2.98
 233  0.056  0.556  0.446- 191 2.89 183 2.90 182 2.90 263 2.93 269 2.93 274 2.93 239 2.94 227 2.94
                           244 2.94 228 2.94 234 2.94 238 2.94
 234  0.222  0.556  0.446- 209 2.81 199 2.83 264 2.93 270 2.93 269 2.93 240 2.94 228 2.94 239 2.94
                           229 2.94 233 2.94 235 2.94 183 2.97
 235  0.389  0.556  0.446- 207 2.82 200 2.85 265 2.93 271 2.93 270 2.93 241 2.94 229 2.94 240 2.94
                           230 2.94 236 2.94 234 2.94 209 2.96
 236  0.556  0.556  0.446- 197 2.85 198 2.85 200 2.86 266 2.93 272 2.93 271 2.93 242 2.94 230 2.94
                           241 2.94 231 2.94 237 2.94 235 2.94
 237  0.722  0.556  0.446- 198 2.82 206 2.83 267 2.93 273 2.93 272 2.93 243 2.94 231 2.94 242 2.94
                           232 2.94 236 2.94 238 2.94 211 2.97
 238  0.889  0.556  0.446- 202 2.83 211 2.84 268 2.93 274 2.93 273 2.93 244 2.94 232 2.94 243 2.94
                           227 2.94 237 2.94 233 2.94 182 2.96
 239  0.056  0.722  0.446- 199 2.81 191 2.90 269 2.93 275 2.93 280 2.93 245 2.94 233 2.94 234 2.94
                           250 2.94 240 2.94 244 2.94 179 2.97
 240  0.222  0.722  0.446- 207 2.79 270 2.93 276 2.93 275 2.93 246 2.94 234 2.94 235 2.94 245 2.94
                           199 2.94 204 2.94 241 2.94 239 2.94
 241  0.389  0.722  0.446- 197 2.80 207 2.83 271 2.93 277 2.93 276 2.93 247 2.94 235 2.94 236 2.94
                           246 2.94 242 2.94 240 2.94 213 2.96
 242  0.556  0.722  0.446- 197 2.82 206 2.83 272 2.93 278 2.93 277 2.93 248 2.94 236 2.94 237 2.94
                           247 2.94 241 2.94 243 2.94 214 2.97
 243  0.722  0.722  0.446- 206 2.80 273 2.93 279 2.93 278 2.93 205 2.94 249 2.94 237 2.94 238 2.94
                           248 2.94 244 2.94 242 2.94 202 2.95
 244  0.889  0.722  0.446- 202 2.85 191 2.88 274 2.93 280 2.93 279 2.93 250 2.94 238 2.94 233 2.94
                           249 2.94 243 2.94 239 2.94 187 2.97
 245  0.056  0.889  0.446- 204 2.81 193 2.90 275 2.93 281 2.93 286 2.93 239 2.94 215 2.94 220 2.94
                           240 2.94 246 2.94 250 2.94 179 2.97
 246  0.222  0.889  0.446- 213 2.81 204 2.82 276 2.93 282 2.93 281 2.93 240 2.94 216 2.94 215 2.94
                           241 2.94 247 2.94 245 2.94 185 2.97
 247  0.389  0.889  0.446- 214 2.81 213 2.81 277 2.93 283 2.93 282 2.93 241 2.94 217 2.94 216 2.94
                           242 2.94 246 2.94 248 2.94 190 2.98
 248  0.556  0.889  0.446- 214 2.82 205 2.83 278 2.93 284 2.93 283 2.93 242 2.94 218 2.94 217 2.94
                           243 2.94 249 2.94 247 2.94 186 2.97
 249  0.722  0.889  0.446- 205 2.84 192 2.90 279 2.93 285 2.93 284 2.93 243 2.94 219 2.94 218 2.94
                           244 2.94 250 2.94 248 2.94 187 2.97
 250  0.889  0.889  0.446- 179 2.92 280 2.93 286 2.93 285 2.93 244 2.94 220 2.94 219 2.94 239 2.94
                           249 2.94 245 2.94 184 2.96 187 2.96
 251  0.111  0.111  0.480- 221 2.93 215 2.93 216 2.93 281 2.94 257 2.94 282 2.94 262 2.94 252 2.94
                           256 2.94
 252  0.278  0.111  0.480- 222 2.93 216 2.93 217 2.93 282 2.94 258 2.94 283 2.94 257 2.94 253 2.94
                           251 2.94
 253  0.444  0.111  0.480- 223 2.93 217 2.93 218 2.93 283 2.94 259 2.94 284 2.94 258 2.94 252 2.94
                           254 2.94
 254  0.611  0.111  0.480- 224 2.93 218 2.93 219 2.93 284 2.94 260 2.94 285 2.94 259 2.94 253 2.94
                           255 2.94
 255  0.778  0.111  0.480- 225 2.93 219 2.93 220 2.93 285 2.94 261 2.94 286 2.94 260 2.94 256 2.94
                           254 2.94
 256  0.944  0.111  0.480- 226 2.93 220 2.93 215 2.93 286 2.94 262 2.94 281 2.94 261 2.94 255 2.94
                           251 2.94
 257  0.111  0.278  0.480- 227 2.93 221 2.93 222 2.93 263 2.94 251 2.94 268 2.94 252 2.94 258 2.94
                           262 2.94
 258  0.278  0.278  0.480- 228 2.93 222 2.93 223 2.93 264 2.94 252 2.94 263 2.94 253 2.94 259 2.94
                           257 2.94
 259  0.444  0.278  0.480- 229 2.93 223 2.93 224 2.93 265 2.94 253 2.94 264 2.94 254 2.94 258 2.94
                           260 2.94
 260  0.611  0.278  0.480- 230 2.93 224 2.93 225 2.93 266 2.94 254 2.94 265 2.94 255 2.94 261 2.94
                           259 2.94
 261  0.778  0.278  0.480- 231 2.93 225 2.93 226 2.93 267 2.94 255 2.94 266 2.94 256 2.94 260 2.94
                           262 2.94
 262  0.944  0.278  0.480- 232 2.93 226 2.93 221 2.93 268 2.94 256 2.94 267 2.94 251 2.94 261 2.94
                           257 2.94
 263  0.111  0.444  0.480- 233 2.93 227 2.93 228 2.93 269 2.94 257 2.94 258 2.94 274 2.94 264 2.94
                           268 2.94
 264  0.278  0.444  0.480- 234 2.93 228 2.93 229 2.93 270 2.94 258 2.94 259 2.94 269 2.94 263 2.94
                           265 2.94
 265  0.444  0.444  0.480- 235 2.93 229 2.93 230 2.93 271 2.94 259 2.94 260 2.94 270 2.94 266 2.94
                           264 2.94
 266  0.611  0.444  0.480- 236 2.93 230 2.93 231 2.93 272 2.94 260 2.94 261 2.94 271 2.94 265 2.94
                           267 2.94
 267  0.778  0.444  0.480- 237 2.93 231 2.93 232 2.93 273 2.94 261 2.94 262 2.94 272 2.94 266 2.94
                           268 2.94
 268  0.944  0.444  0.480- 238 2.93 232 2.93 227 2.93 274 2.94 262 2.94 257 2.94 273 2.94 267 2.94
                           263 2.94
 269  0.111  0.611  0.480- 239 2.93 233 2.93 234 2.93 263 2.94 275 2.94 280 2.94 264 2.94 270 2.94
                           274 2.94
 270  0.278  0.611  0.480- 240 2.93 234 2.93 235 2.93 264 2.94 276 2.94 275 2.94 265 2.94 271 2.94
                           269 2.94
 271  0.444  0.611  0.480- 241 2.93 235 2.93 236 2.93 265 2.94 277 2.94 276 2.94 266 2.94 270 2.94
                           272 2.94
 272  0.611  0.611  0.480- 242 2.93 236 2.93 237 2.93 266 2.94 278 2.94 277 2.94 267 2.94 271 2.94
                           273 2.94
 273  0.778  0.611  0.480- 243 2.93 237 2.93 238 2.93 267 2.94 279 2.94 278 2.94 268 2.94 274 2.94
                           272 2.94
 274  0.944  0.611  0.480- 244 2.93 238 2.93 233 2.93 268 2.94 280 2.94 279 2.94 263 2.94 273 2.94
                           269 2.94
 275  0.111  0.778  0.480- 245 2.93 239 2.93 240 2.93 281 2.94 269 2.94 270 2.94 286 2.94 276 2.94
                           280 2.94
 276  0.278  0.778  0.480- 246 2.93 240 2.93 241 2.93 270 2.94 282 2.94 271 2.94 281 2.94 275 2.94
                           277 2.94
 277  0.444  0.778  0.480- 247 2.93 241 2.93 242 2.93 271 2.94 283 2.94 272 2.94 282 2.94 276 2.94
                           278 2.94
 278  0.611  0.778  0.480- 248 2.93 242 2.93 243 2.93 284 2.94 272 2.94 273 2.94 283 2.94 279 2.94
                           277 2.94
 279  0.778  0.778  0.480- 249 2.93 243 2.93 244 2.93 285 2.94 273 2.94 274 2.94 284 2.94 278 2.94
                           280 2.94
 280  0.944  0.778  0.480- 250 2.93 244 2.93 239 2.93 274 2.94 286 2.94 269 2.94 285 2.94 279 2.94
                           275 2.94
 281  0.111  0.944  0.480- 215 2.93 245 2.93 246 2.93 275 2.94 251 2.94 256 2.94 276 2.94 286 2.94
                           282 2.94
 282  0.278  0.944  0.480- 216 2.93 246 2.93 247 2.93 252 2.94 276 2.94 277 2.94 251 2.94 283 2.94
                           281 2.94
 283  0.444  0.944  0.480- 217 2.93 247 2.93 248 2.93 253 2.94 277 2.94 278 2.94 252 2.94 284 2.94
                           282 2.94
 284  0.611  0.944  0.480- 218 2.93 248 2.93 249 2.93 278 2.94 254 2.94 253 2.94 279 2.94 283 2.94
                           285 2.94
 285  0.778  0.944  0.480- 219 2.93 249 2.93 250 2.93 279 2.94 255 2.94 254 2.94 280 2.94 284 2.94
                           286 2.94
 286  0.944  0.944  0.480- 220 2.93 250 2.93 245 2.93 256 2.94 280 2.94 275 2.94 255 2.94 281 2.94
                           285 2.94
 
  LATTYP: Found a simple monoclinic cell.
 ALAT       =    17.6538925193
 B/A-ratio  =     3.9651311983
 C/A-ratio  =     1.0000320357
 COS(beta)  =    -0.4993888782
  
  Lattice vectors:
  
 A1 = (   8.8319152200,  15.2858494900,   0.0000000000)
 A2 = (   0.0000000000,   0.0000000000,  70.0000000000)
 A3 = (   8.8330456400, -15.2858494900,   0.0000000000)


Analysis of symmetry for initial positions (statically):
=====================================================================
 Subroutine PRICEL returns:
 Original cell was already a primitive cell.
 

 Routine SETGRP: Setting up the symmetry group for a 
 simple monoclinic supercell.


 Subroutine GETGRP returns: Found  1 space group operations
 (whereof  1 operations were pure point group operations)
 out of a pool of  4 trial point group operations.


The static configuration has the point symmetry C_1 .


Analysis of symmetry for dynamics (positions and initial velocities):
=====================================================================
 Subroutine PRICEL returns:
 Original cell was already a primitive cell.
 

 Routine SETGRP: Setting up the symmetry group for a 
 simple monoclinic supercell.


 Subroutine GETGRP returns: Found  1 space group operations
 (whereof  1 operations were pure point group operations)
 out of a pool of  4 trial point group operations.


The dynamic configuration has the point symmetry C_1 .


 Subroutine INISYM returns: Found  1 space group operations
 (whereof  1 operations are pure point group operations),
 and found     1 'primitive' translations


----------------------------------------------------------------------------------------

                                     Primitive cell                                     

  volume of cell :   18901.6753

  direct lattice vectors                    reciprocal lattice vectors
    17.664960860  0.000000000  0.000000000     0.056609239 -0.032707898  0.000000000
     8.831915220 15.285849490  0.000000000     0.000000000  0.065419982  0.000000000
     0.000000000  0.000000000 70.000000000     0.000000000  0.000000000  0.014285714

  length of vectors
    17.664960860 17.653892519 70.000000000     0.065378992  0.065419982  0.014285714

  position of ions in fractional coordinates (direct lattice)
     0.000000000  0.000000000  0.000000000
     0.166666659  0.000000000  0.000000000
     0.333333317  0.000000000  0.000000000
     0.500000542  0.000000000  0.000000000
     0.666667200  0.000000000  0.000000000
     0.833333859  0.000000000  0.000000000
     0.000000286  0.166666563  0.000000000
     0.166666944  0.166666563  0.000000000
     0.333333603  0.166666563  0.000000000
     0.500000261  0.166666563  0.000000000
     0.666666920  0.166666563  0.000000000
     0.833333578  0.166666563  0.000000000
     0.000000005  0.333333126  0.000000000
     0.166666664  0.333333126  0.000000000
     0.333333888  0.333333126  0.000000000
     0.500000547  0.333333126  0.000000000
     0.666667205  0.333333126  0.000000000
     0.833333864  0.333333126  0.000000000
     0.000000290  0.499999690  0.000000000
     0.166666949  0.499999690  0.000000000
     0.333333608  0.499999690  0.000000000
     0.500000266  0.499999690  0.000000000
     0.666667491  0.499999690  0.000000000
     0.833334149  0.499999690  0.000000000
     0.166666907  0.666666907  0.000000000
     0.333333566  0.666666907  0.000000000
     0.500000225  0.666666907  0.000000000
     0.666666883  0.666666907  0.000000000
     0.833333542  0.666666907  0.000000000
     0.999999634  0.666666907  0.000000000
     0.999999968  0.833333470  0.000000000
     0.166666627  0.833333470  0.000000000
     0.333333285  0.833333470  0.000000000
     0.499999944  0.833333470  0.000000000
     0.666667169  0.833333470  0.000000000
     0.833333827  0.833333470  0.000000000
     0.055557392  0.055552032  0.034161857
     0.222224051  0.055552032  0.034161857
     0.388891276  0.055552032  0.034161857
     0.555557934  0.055552032  0.034161857
     0.722224593  0.055552032  0.034161857
     0.888891251  0.055552032  0.034161857
     0.055557678  0.222218595  0.034161857
     0.222224337  0.222218595  0.034161857
     0.388890995  0.222218595  0.034161857
     0.555557654  0.222218595  0.034161857
     0.722224878  0.222218595  0.034161857
     0.888891537  0.222218595  0.034161857
     0.055557070  0.388885813  0.034161857
     0.222224295  0.388885813  0.034161857
     0.388890954  0.388885813  0.034161857
     0.555557612  0.388885813  0.034161857
     0.722224271  0.388885813  0.034161857
     0.888890929  0.388885813  0.034161857
     0.055557356  0.555552376  0.034161857
     0.222224014  0.555552376  0.034161857
     0.388890673  0.555552376  0.034161857
     0.555557898  0.555552376  0.034161857
     0.722224556  0.555552376  0.034161857
     0.888891215  0.555552376  0.034161857
     0.055557641  0.722218939  0.034161857
     0.222224300  0.722218939  0.034161857
     0.388890958  0.722218939  0.034161857
     0.555557617  0.722218939  0.034161857
     0.722224276  0.722218939  0.034161857
     0.888891500  0.722218939  0.034161857
     0.055557361  0.888885502  0.034161857
     0.222224019  0.888885502  0.034161857
     0.388891244  0.888885502  0.034161857
     0.555557903  0.888885502  0.034161857
     0.722224561  0.888885502  0.034161857
     0.888891220  0.888885502  0.034161857
     0.617181017  0.266861350  0.067194585
     0.266953737  0.617258742  0.067046206
     0.782839139  0.266890065  0.067156131
     0.266704216  0.783757029  0.067065615
     0.617204782  0.783050311  0.067030199
     0.783753625  0.616875421  0.067128463
     0.442997484  0.779688972  0.066310763
     0.779990734  0.443137443  0.066283423
     0.449169962  0.269828929  0.067131431
     0.443860297  0.442674254  0.066462101
     0.269478535  0.449156068  0.067207772
     0.269483849  0.949094621  0.067042501
     0.948460964  0.268936025  0.067101380
     0.448989581  0.948559553  0.067199446
     0.611977744  0.612931068  0.066292659
     0.948779608  0.448819363  0.067079603
     0.442714522  0.609995541  0.066798230
     0.612595713  0.441486606  0.066396446
     0.778803090  0.944211757  0.067863655
     0.943992668  0.779152482  0.067873968
     0.944137157  0.943747177  0.067944810
     0.110924951  0.110665341  0.067607767
     0.445234232  0.110964460  0.067597469
     0.111124058  0.445456840  0.067622526
     0.781644235  0.104088415  0.068125737
     0.104426683  0.781608809  0.068048080
     0.781473949  0.781474797  0.067951717
     0.277486549  0.277168752  0.068921382
     0.277287018  0.112967147  0.068833526
     0.614502969  0.106116989  0.068035009
     0.106152661  0.614444395  0.068099443
     0.946648145  0.614106436  0.068120702
     0.946170860  0.106100306  0.068052614
     0.614243166  0.946328011  0.068129095
     0.106108351  0.946807198  0.068067685
     0.113381489  0.276917400  0.068793701
     0.340409515  0.340167740  0.098754178
     0.510355818  0.322926234  0.098817638
     0.325164668  0.509761984  0.098495447
     0.324455164  0.833611883  0.098428499
     0.509756819  0.832411439  0.098442260
     0.339754105  0.988696860  0.098600741
     0.833374313  0.324185673  0.098501347
     0.834140132  0.508189497  0.098392841
     0.988879588  0.338687856  0.098519592
     0.320993064  0.674232089  0.098526536
     0.672815554  0.322234724  0.098808550
     0.673418912  0.672660697  0.098490026
     0.499290785  0.666592764  0.098368774
     0.502590001  0.494430253  0.099304576
     0.666670746  0.501061821  0.098266587
     0.394765267  0.397660415  0.129302720
     0.396362016  0.876724895  0.129090246
     0.878964542  0.394262523  0.129092464
     0.570680315  0.366992983  0.131132497
     0.374435513  0.567948819  0.130095168
     0.375544393  0.727160297  0.130156328
     0.725666359  0.378924352  0.129964450
     0.566388066  0.725029723  0.129954805
     0.727243111  0.565173521  0.130003719
     0.554924570  0.556126730  0.130242989
     0.445481576  0.453745760  0.160471428
     0.773486508  0.447930777  0.160384505
     0.450560993  0.770351792  0.160232449
     0.426766001  0.622302244  0.161514043
     0.617487433  0.436903694  0.161070216
     0.622306583  0.619578715  0.161378932
     0.501356151  0.503755692  0.191093722
     0.668660277  0.501074496  0.191322023
     0.504239561  0.664920912  0.191030088
     0.558791190  0.554826509  0.221645022
     0.546952409  0.560786111  0.258249429
     0.601117310  0.449206758  0.288522770
     0.439682378  0.614241552  0.289184849
     0.601826796  0.615592353  0.288670993
     0.486144695  0.687633597  0.318738250
     0.485895701  0.493660657  0.318575577
     0.667164295  0.498699545  0.318879250
     0.654102415  0.342258365  0.319275976
     0.336645329  0.665572565  0.320122320
     0.658544508  0.665105892  0.319368882
     0.550874614  0.556990785  0.350043181
     0.382171561  0.737517967  0.350147154
     0.382419614  0.547563921  0.350085581
     0.745030435  0.378497734  0.348247599
     0.542323550  0.387040413  0.349955892
     0.542933288  0.736943717  0.349908532
     0.728191748  0.548121061  0.349785921
     0.712904576  0.235803312  0.350527688
     0.231094452  0.718024981  0.351262116
     0.713671762  0.716115577  0.350553634
     0.608694849  0.612446362  0.381709731
     0.442893803  0.611015331  0.381841297
     0.436316592  0.791860480  0.381418393
     0.616342102  0.441299540  0.380636564
     0.789709449  0.437896367  0.380791575
     0.436747417  0.439217949  0.381401920
     0.120095667  0.773728259  0.381513945
     0.276006995  0.787989342  0.381761859
     0.770987680  0.124327915  0.381114221
     0.275621553  0.602746258  0.381694420
     0.770838746  0.770588624  0.381167312
     0.787584069  0.277256977  0.380960484
     0.600960678  0.279585185  0.381504209
     0.601117738  0.786666602  0.381528585
     0.785424020  0.600902861  0.381116366
     0.996415567  0.835261805  0.411285505
     0.004563754  0.164747931  0.411843910
     0.496914988  0.165120857  0.411897136
     0.004798070  0.496953560  0.411856017
     0.164205001  0.497077233  0.411830853
     0.833174368  0.999067049  0.411069701
     0.164141057  0.005508393  0.411856010
     0.496523160  0.005599400  0.411857524
     0.833385670  0.834208066  0.411044379
     0.329618412  0.330183782  0.411908324
     0.006596902  0.329947478  0.411893064
     0.329605223  0.007124150  0.411905714
     0.998997460  0.666191020  0.412352647
     0.665841205  0.000387046  0.412300936
     0.999580944  0.000907303  0.412339554
     0.167014689  0.332070004  0.412072936
     0.331930629  0.167434863  0.412057601
     0.167128665  0.167518965  0.412008562
     0.497850945  0.669459838  0.413568453
     0.669436329  0.498114536  0.413463311
     0.161260856  0.662862223  0.412952269
     0.501094356  0.496976752  0.413222051
     0.662025784  0.162870773  0.412777297
     0.841478559  0.661497373  0.412719732
     0.840981183  0.163226648  0.412757127
     0.161389030  0.842632834  0.412952581
     0.661981344  0.841401175  0.412790421
     0.667795099  0.667507169  0.413608648
     0.330508845  0.667502581  0.413713099
     0.668498480  0.330894580  0.413491838
     0.327707805  0.494726300  0.412940277
     0.493861457  0.328651327  0.412874345
     0.843760830  0.493804739  0.412635924
     0.844121305  0.328202483  0.412554358
     0.327735168  0.844788040  0.412967910
     0.493607443  0.844754133  0.412913142
     0.055584754  0.055502967  0.445761286
     0.222251412  0.055502967  0.445761286
     0.388917505  0.055502967  0.445761286
     0.555584163  0.055502967  0.445761286
     0.722250822  0.055502967  0.445761286
     0.888918047  0.055502967  0.445761286
     0.055584473  0.222169530  0.445761286
     0.222251132  0.222169530  0.445761286
     0.388917790  0.222169530  0.445761286
     0.555584449  0.222169530  0.445761286
     0.722251107  0.222169530  0.445761286
     0.888917766  0.222169530  0.445761286
     0.055584759  0.388836093  0.445761286
     0.222251417  0.388836093  0.445761286
     0.388918076  0.388836093  0.445761286
     0.555584734  0.388836093  0.445761286
     0.722251393  0.388836093  0.445761286
     0.888918052  0.388836093  0.445761286
     0.055584151  0.555503311  0.445761286
     0.222250810  0.555503311  0.445761286
     0.388917468  0.555503311  0.445761286
     0.555584127  0.555503311  0.445761286
     0.722250785  0.555503311  0.445761286
     0.888917444  0.555503311  0.445761286
     0.055584437  0.722169874  0.445761286
     0.222251095  0.722169874  0.445761286
     0.388917754  0.722169874  0.445761286
     0.555584412  0.722169874  0.445761286
     0.722251071  0.722169874  0.445761286
     0.888917729  0.722169874  0.445761286
     0.055584156  0.888836437  0.445761286
     0.222250815  0.888836437  0.445761286
     0.388917473  0.888836437  0.445761286
     0.555584132  0.888836437  0.445761286
     0.722250790  0.888836437  0.445761286
     0.888917449  0.888836437  0.445761286
     0.111142146  0.111054999  0.479923143
     0.277808805  0.111054999  0.479923143
     0.444475463  0.111054999  0.479923143
     0.611142122  0.111054999  0.479923143
     0.777808780  0.111054999  0.479923143
     0.944475439  0.111054999  0.479923143
     0.111141539  0.277722216  0.479923143
     0.277808197  0.277722216  0.479923143
     0.444474856  0.277722216  0.479923143
     0.611141514  0.277722216  0.479923143
     0.777808173  0.277722216  0.479923143
     0.944474831  0.277722216  0.479923143
     0.111141824  0.444388780  0.479923143
     0.277808483  0.444388780  0.479923143
     0.444475141  0.444388780  0.479923143
     0.611141800  0.444388780  0.479923143
     0.777808458  0.444388780  0.479923143
     0.944475117  0.444388780  0.479923143
     0.111141544  0.611055343  0.479923143
     0.277808202  0.611055343  0.479923143
     0.444474861  0.611055343  0.479923143
     0.611141519  0.611055343  0.479923143
     0.777808178  0.611055343  0.479923143
     0.944474836  0.611055343  0.479923143
     0.111141829  0.777721906  0.479923143
     0.277808488  0.777721906  0.479923143
     0.444475146  0.777721906  0.479923143
     0.611141805  0.777721906  0.479923143
     0.777808463  0.777721906  0.479923143
     0.944475122  0.777721906  0.479923143
     0.111141549  0.944388469  0.479923143
     0.277808773  0.944388469  0.479923143
     0.444475432  0.944388469  0.479923143
     0.611141524  0.944388469  0.479923143
     0.777808183  0.944388469  0.479923143
     0.944475407  0.944388469  0.479923143

  ion indices of the primitive-cell ions
   primitive index   ion index
                 1           1
                 2           2
                 3           3
                 4           4
                 5           5
                 6           6
                 7           7
                 8           8
                 9           9
                10          10
                11          11
                12          12
                13          13
                14          14
                15          15
                16          16
                17          17
                18          18
                19          19
                20          20
                21          21
                22          22
                23          23
                24          24
                25          25
                26          26
                27          27
                28          28
                29          29
                30          30
                31          31
                32          32
                33          33
                34          34
                35          35
                36          36
                37          37
                38          38
                39          39
                40          40
                41          41
                42          42
                43          43
                44          44
                45          45
                46          46
                47          47
                48          48
                49          49
                50          50
                51          51
                52          52
                53          53
                54          54
                55          55
                56          56
                57          57
                58          58
                59          59
                60          60
                61          61
                62          62
                63          63
                64          64
                65          65
                66          66
                67          67
                68          68
                69          69
                70          70
                71          71
                72          72
                73          73
                74          74
                75          75
                76          76
                77          77
                78          78
                79          79
                80          80
                81          81
                82          82
                83          83
                84          84
                85          85
                86          86
                87          87
                88          88
                89          89
                90          90
                91          91
                92          92
                93          93
                94          94
                95          95
                96          96
                97          97
                98          98
                99          99
               100         100
               101         101
               102         102
               103         103
               104         104
               105         105
               106         106
               107         107
               108         108
               109         109
               110         110
               111         111
               112         112
               113         113
               114         114
               115         115
               116         116
               117         117
               118         118
               119         119
               120         120
               121         121
               122         122
               123         123
               124         124
               125         125
               126         126
               127         127
               128         128
               129         129
               130         130
               131         131
               132         132
               133         133
               134         134
               135         135
               136         136
               137         137
               138         138
               139         139
               140         140
               141         141
               142         142
               143         143
               144         144
               145         145
               146         146
               147         147
               148         148
               149         149
               150         150
               151         151
               152         152
               153         153
               154         154
               155         155
               156         156
               157         157
               158         158
               159         159
               160         160
               161         161
               162         162
               163         163
               164         164
               165         165
               166         166
               167         167
               168         168
               169         169
               170         170
               171         171
               172         172
               173         173
               174         174
               175         175
               176         176
               177         177
               178         178
               179         179
               180         180
               181         181
               182         182
               183         183
               184         184
               185         185
               186         186
               187         187
               188         188
               189         189
               190         190
               191         191
               192         192
               193         193
               194         194
               195         195
               196         196
               197         197
               198         198
               199         199
               200         200
               201         201
               202         202
               203         203
               204         204
               205         205
               206         206
               207         207
               208         208
               209         209
               210         210
               211         211
               212         212
               213         213
               214         214
               215         215
               216         216
               217         217
               218         218
               219         219
               220         220
               221         221
               222         222
               223         223
               224         224
               225         225
               226         226
               227         227
               228         228
               229         229
               230         230
               231         231
               232         232
               233         233
               234         234
               235         235
               236         236
               237         237
               238         238
               239         239
               240         240
               241         241
               242         242
               243         243
               244         244
               245         245
               246         246
               247         247
               248         248
               249         249
               250         250
               251         251
               252         252
               253         253
               254         254
               255         255
               256         256
               257         257
               258         258
               259         259
               260         260
               261         261
               262         262
               263         263
               264         264
               265         265
               266         266
               267         267
               268         268
               269         269
               270         270
               271         271
               272         272
               273         273
               274         274
               275         275
               276         276
               277         277
               278         278
               279         279
               280         280
               281         281
               282         282
               283         283
               284         284
               285         285
               286         286

----------------------------------------------------------------------------------------

 
 
 KPOINTS: KPOINTS                                 

Automatic generation of k-mesh.
 Grid dimensions read from file:
 generate k-points for:    2    2    1

 Generating k-lattice:

  Cartesian coordinates                     Fractional coordinates (reciprocal lattice)
     0.028304620 -0.016353949  0.000000000     0.500000000  0.000000000  0.000000000
     0.000000000  0.032709991  0.000000000     0.000000000  0.500000000  0.000000000
     0.000000000  0.000000000  0.014285714     0.000000000  0.000000000  1.000000000

  Length of vectors
     0.032689496  0.032709991  0.014285714

  Shift w.r.t. Gamma in fractional coordinates (k-lattice)
     0.000000000  0.000000000  0.000000000

 
 Subroutine IBZKPT returns following result:
 ===========================================
 
 Found      4 irreducible k-points:
 
 Following reciprocal coordinates:
            Coordinates               Weight
  0.000000  0.000000  0.000000      1.000000
  0.500000 -0.000000  0.000000      1.000000
  0.000000  0.500000  0.000000      1.000000
  0.500000  0.500000  0.000000      1.000000
 
 Following cartesian coordinates:
            Coordinates               Weight
  0.000000  0.000000  0.000000      1.000000
  0.028305 -0.016354  0.000000      1.000000
  0.000000  0.032710  0.000000      1.000000
  0.028305  0.016356  0.000000      1.000000
 


--------------------------------------------------------------------------------------------------------




 Dimension of arrays:
   k-points           NKPTS =      4   k-points in BZ     NKDIM =      4   number of bands    NBANDS=   1888
   number of dos      NEDOS =    301   number of ions     NIONS =    286
   non local maximal  LDIM  =      6   non local SUM 2l+1 LMDIM =     18
   total plane-waves  NPLWV = ******
   max r-space proj   IRMAX =   5924   max aug-charges    IRDMAX= 199880
   dimension x,y,z NGX =   126 NGY =  126 NGZ =  486
   dimension x,y,z NGXF=   252 NGYF=  252 NGZF=  972
   support grid    NGXF=   504 NGYF=  504 NGZF= 1944
   ions per type =             286
   NGX,Y,Z   is equivalent  to a cutoff of  11.86, 11.87, 11.54 a.u.
   NGXF,Y,Z  is equivalent  to a cutoff of  23.72, 23.73, 23.08 a.u.

 SYSTEM =  Au_FRESH_TRAIN	                         
 POSCAR =  System 3                                

 Startparameter for this run:
   NWRITE =      2    write-flag & timer
   PREC   = accura    normal or accurate (medium, high low for compatibility)
   ISTART =      0    job   : 0-new  1-cont  2-samecut
   ICHARG =      2    charge: 1-file 2-atom 10-const
   ISPIN  =      1    spin polarized calculation?
   LNONCOLLINEAR =      F non collinear calculations
   LSORBIT =      F    spin-orbit coupling
   INIWAV =      1    electr: 0-lowe 1-rand  2-diag
   LASPH  =      T    aspherical Exc in radial PAW
 Electronic Relaxation 1
   ENCUT  =  450.0 eV  33.07 Ry    5.75 a.u.  30.55 30.54121.08*2*pi/ulx,y,z
   ENINI  =  450.0     initial cutoff
   ENAUG  =  356.7 eV  augmentation charge cutoff
   NELM   =    400;   NELMIN=  5; NELMDL= -5     # of ELM steps 
   EDIFF  = 0.1E-05   stopping-criterion for ELM
   LREAL  =      T    real-space projection
   NLSPLINE    = F    spline interpolate recip. space projectors
   LCOMPAT=      F    compatible to vasp.4.4
   GGA_COMPAT  = T    GGA compatible to vasp.4.4-vasp.4.6
   LMAXPAW     = -100 max onsite density
   LMAXMIX     =    2 max onsite mixed and CHGCAR
   VOSKOWN=      0    Vosko Wilk Nusair interpolation
   ROPT   =   -0.00025
 Ionic relaxation
   EDIFFG = -.1E-01   stopping-criterion for IOM
   NSW    =      0    number of steps for IOM
   NBLOCK =      1;   KBLOCK =      1    inner block; outer block 
   IBRION =     -1    ionic relax: 0-MD 1-quasi-New 2-CG
   NFREE  =      0    steps in history (QN), initial steepest desc. (CG)
   ISIF   =      3    stress and relaxation
   IWAVPR =     10    prediction:  0-non 1-charg 2-wave 3-comb
   ISYM   =      2    0-nonsym 1-usesym 2-fastsym
   LCORR  =      T    Harris-Foulkes like correction to forces

   POTIM  = 0.5000    time-step for ionic-motion
   TEIN   =    0.0    initial temperature
   TEBEG  =    0.0;   TEEND  =   0.0 temperature during run
   SMASS  =  -3.00    Nose mass-parameter (am)
   estimated Nose-frequenzy (Omega)   =  0.10E-29 period in steps = 0.13E+47 mass=  -0.713E-26a.u.
   SCALEE = 1.0000    scale energy and forces
   NPACO  =    256;   APACO  = 10.0  distance and # of slots for P.C.
   PSTRESS=    0.0 pullay stress

  Mass of Ions in am
   POMASS = 196.97
  Ionic Valenz
   ZVAL   =  11.00
  Atomic Wigner-Seitz radii
   RWIGS  =  -1.00
  virtual crystal weights 
   VCA    =   1.00
   NELECT =    3146.0000    total number of electrons
   NUPDOWN=      -1.0000    fix difference up-down

 DOS related values:
   EMIN   =  10.00;   EMAX   =-10.00  energy-range for DOS
   EFERMI =   0.00;   METHOD = LEGACY      
   ISMEAR =     0;   SIGMA  =   0.05  broadening in eV -4-tet -1-fermi 0-gaus

 Electronic relaxation 2 (details)
   IALGO  =     68    algorithm
   LDIAG  =      T    sub-space diagonalisation (order eigenvalues)
   LSUBROT=      F    optimize rotation matrix (better conditioning)
   TURBO    =      0    0=normal 1=particle mesh
   IRESTART =      0    0=no restart 2=restart with 2 vectors
   NREBOOT  =      0    no. of reboots
   NMIN     =      0    reboot dimension
   EREF     =   0.00    reference energy to select bands
   IMIX   =      4    mixing-type and parameters
     AMIX     =   0.40;   BMIX     =  1.00
     AMIX_MAG =   1.60;   BMIX_MAG =  1.00
     AMIN     =   0.01
     WC   =   100.;   INIMIX=   1;  MIXPRE=   1;  MAXMIX= -45

 Intra band minimization:
   WEIMIN = 0.0000     energy-eigenvalue tresh-hold
   EBREAK =  0.13E-09  absolut break condition
   DEPER  =   0.30     relativ break condition  

   TIME   =   0.40     timestep for ELM

  volume/ion in A,a.u.               =      66.09       446.00
  Fermi-wavevector in a.u.,A,eV,Ry     =   0.900522  1.701740 11.033506  0.810940
  Thomas-Fermi vector in A             =   2.023490
 
 Write flags
   LWAVE        =      F    write WAVECAR
   LDOWNSAMPLE  =      F    k-point downsampling of WAVECAR
   LCHARG       =      F    write CHGCAR
   LVTOT        =      F    write LOCPOT, total local potential
   LVHAR        =      F    write LOCPOT, Hartree potential only
   LELF         =      F    write electronic localiz. function (ELF)
   LORBIT       =      0    0 simple, 1 ext, 2 COOP (PROOUT), +10 PAW based schemes


 Dipole corrections
   LMONO  =      F    monopole corrections only (constant potential shift)
   LDIPOL =      F    correct potential (dipole corrections)
   IDIPOL =      0    1-x, 2-y, 3-z, 4-all directions 
   EPSILON=  1.0000000 bulk dielectric constant

 Exchange correlation treatment:
   GGA     =    --    GGA type
   LEXCH   =     8    internal setting for exchange type
   LIBXC   =     F    Libxc                    
   VOSKOWN =     0    Vosko Wilk Nusair interpolation
   LHFCALC =     F    Hartree Fock is set to
   LHFONE  =     F    Hartree Fock one center treatment
   AEXX    =    0.0000 exact exchange contribution

 Linear response parameters
   LEPSILON=     F    determine dielectric tensor
   LRPA    =     F    only Hartree local field effects (RPA)
   LNABLA  =     F    use nabla operator in PAW spheres
   LVEL    =     F    velocity operator in full k-point grid
   CSHIFT  =0.1000    complex shift for real part using Kramers Kronig
   OMEGAMAX=  -1.0    maximum frequency
   DEG_THRESHOLD= 0.2000000E-02 threshold for treating states as degnerate
   RTIME   =   -0.100 relaxation time in fs
  (WPLASMAI=    0.000 imaginary part of plasma frequency in eV, 0.658/RTIME)
   DFIELD  = 0.0000000 0.0000000 0.0000000 field for delta impulse in time
 
  Optional k-point grid parameters
   LKPOINTS_OPT  =     F    use optional k-point grid
   KPOINTS_OPT_MODE=     1    mode for optional k-point grid
 
 Orbital magnetization related:
   ORBITALMAG=     F  switch on orbital magnetization
[...]
     19.29317      9.42946      4.69899         0.023298      0.011235      0.086910
     14.71168     11.91821      4.64175         0.004095      0.000869      0.070588
     17.69226      6.77373      4.63984         0.020569      0.012100      0.089493
     10.31768      4.12456      4.69920        -0.044201     -0.057160      0.119942
     11.75044      6.76665      4.65235         0.002921     -0.006784      0.075908
      8.72724      6.86573      4.70454        -0.038506      0.000280      0.095525
     13.14274     14.50772      4.69298        -0.008066      0.008918      0.149112
     19.12975      4.11092      4.69710         0.049358     -0.024211      0.118709
     16.30898     14.49954      4.70396         0.036708      0.019967      0.070335
     16.22392      9.36917      4.64049         0.037520      0.010608      0.109828
     20.72409      6.86059      4.69557         0.055852     -0.028822      0.102474
     13.20796      9.32430      4.67588        -0.030371      0.022800      0.009755
     14.72065      6.74850      4.64775        -0.019190     -0.010106      0.116082
     22.09672     14.43308      4.75046         0.057668     -0.044947      0.132280
     23.55700     11.91001      4.75118         0.001843      0.048794      0.127314
     25.01324     14.42598      4.75614        -0.057628     -0.019663      0.114575
      2.93687      1.69161      4.73254         0.014191      0.038879      0.183735
      8.84507      1.69619      4.73182        -0.000855      0.019260      0.181682
      5.89724      6.80919      4.73358        -0.020626     -0.037804      0.180133
     14.72701      1.59108      4.76880        -0.016656     -0.008900      0.109622
      8.74780     11.94755      4.76337        -0.028363     -0.008126      0.126850
     20.70663     11.94551      4.75662         0.013076      0.001975      0.151091
      7.34972      4.23676      4.82450        -0.024096     -0.008178      0.096655
      5.89598      1.72680      4.81835        -0.005345      0.054522      0.088508
     11.79239      1.62209      4.76245        -0.009686     -0.006915      0.120239
      7.30190      9.39230      4.76696        -0.001119      0.019252      0.101689
     22.14624      9.38714      4.76845         0.030540      0.027200      0.099592
     17.65114      1.62183      4.76368         0.002718     -0.016836      0.117900
     19.20847     14.46543      4.76904         0.024565      0.022831      0.095481
     10.23652     14.47275      4.76474        -0.023631      0.000133      0.113213
      4.44859      4.23292      4.81556         0.018634     -0.015755      0.090229
      9.01765      5.19975      6.91279         0.003367     -0.003054     -0.065435
     11.86747      4.93620      6.91723        -0.005538     -0.026612     -0.003934
     10.24620      7.79214      6.89468        -0.027101      0.037089     -0.063884
     13.09388     12.74247      6.88999         0.048087      0.098868     -0.018572
     16.35662     12.72412      6.89096        -0.001281      0.066341     -0.089119
     14.73383     15.11307      6.90205        -0.022766     -0.077180     -0.027059
     17.58471      4.95545      6.89509         0.073407      0.001124     -0.038948
     19.22334      7.76811      6.88750         0.007783      0.023392     -0.054499
     20.45978      5.17713      6.89637        -0.014528     -0.008844     -0.080019
     11.62509     10.30621      6.89686        -0.018314     -0.070923      0.010636
     14.73121      4.92563      6.91660        -0.024342     -0.059780     -0.022060
     17.83680     10.28219      6.89430         0.002456     -0.030077      0.000571
     14.70724     10.18944      6.88581        -0.003105     -0.004139     -0.055345
     13.24500      7.55779      6.95132        -0.013714      0.121798     -0.231878
     16.20205      7.65916      6.87866         0.013238     -0.014062     -0.057853
     10.48562      6.07858      9.05119         0.123740     -0.038454      0.096266
     14.74488     13.40148      9.03632        -0.023839     -0.011945      0.047589
     19.00897      6.02664      9.03647        -0.067833      0.032337      0.083264
     13.32230      5.60980      9.17927        -0.045487      0.253607      0.066508
     11.63046      8.68158      9.10666        -0.003571      0.026519     -0.022272
     13.05620     11.11526      9.11094        -0.004514      0.009188     -0.036494
     16.16550      5.79218      9.09751        -0.070625     -0.028576      0.056088
     16.40862     11.08270      9.09684         0.023428     -0.020567     -0.002515
     17.83829      8.63916      9.10026        -0.002900     -0.021906     -0.026802
     14.71438      8.50087      9.11701         0.044321      0.090020      0.039924
     11.87686      6.93589     11.23300         0.069688     -0.204638     -0.154153
     17.61970      6.84700     11.22692         0.037278      0.015853     -0.055559
     14.76282     11.77548     11.21627        -0.016653      0.023325     -0.011182
     13.03493      9.51242     11.30598         0.081800     -0.012729      0.026244
     14.76659      6.67844     11.27492        -0.139894     -0.163120     -0.046840
     16.46509      9.47079     11.29653        -0.084635     -0.052591      0.017737
     13.30556      7.70033     13.37656        -0.008531     -0.027440      0.056956
     16.23731      7.65935     13.39254        -0.001648      0.037329     -0.000958
     14.77990     10.16388     13.37211         0.002829      0.020728      0.016743
     14.77121      8.48099     15.51515        -0.002768      0.034230     -0.048392
     14.61471      8.57209     18.07746         0.010926     -0.034632      0.080811
     14.58607      6.86651     20.19659         0.032038      0.002729     -0.037524
     13.19190      9.38920     20.24294        -0.009538      0.003897     -0.056542
     16.06811      9.40985     20.20697         0.015244     -0.020318     -0.018056
     14.66085     10.51106     22.31168         0.011075     -0.104039     -0.041859
     12.94330      7.54602     22.30029         0.043841      0.054843     -0.001761
     16.18990      7.62305     22.32155         0.125422     -0.197634      0.039559
     14.57749      5.23171     22.34932         0.236403     -0.013198      0.099725
     11.82511     10.17384     22.40856        -0.064648      0.028273      0.026480
     17.50732     10.16671     22.35582        -0.000129      0.019720      0.039323
     14.65047      8.51408     24.50302        -0.022469      0.041632     -0.094378
     13.26474     11.27359     24.51030         0.000445      0.019608      0.056970
     11.59147      8.36998     24.50599        -0.039972      0.013227      0.044507
     16.50379      5.78566     24.37733        -0.225935      0.256448      0.007674
     12.99843      5.91624     24.49691        -0.015183     -0.012347      0.009389
     16.09952     11.26481     24.49360         0.010761      0.010548      0.050660
     17.70444      8.37850     24.48501        -0.011732     -0.140172     -0.073502
     14.67603      3.60445     24.53694         0.050277      0.080126     -0.091358
     10.42381     10.97562     24.58835         0.052684     -0.028857     -0.092186
     18.93166     10.94643     24.53875        -0.002220     -0.001263     -0.027737
     16.16165      9.36176     26.71968         0.037249     -0.021951      0.062629
     13.22014      9.33989     26.72889        -0.049190      0.017458      0.062507
     14.70116     12.10426     26.69929         0.010450     -0.021388     -0.002727
     14.78518      6.74564     26.64456        -0.071674      0.046918      0.194039
     17.81765      6.69362     26.65541        -0.044590     -0.051530     -0.017250
     11.59426      6.71382     26.69813         0.004708      0.012719      0.048083
      8.95499     11.82709     26.70598         0.019013     -0.030527      0.110141
     11.83511     12.04509     26.72333        -0.028002      0.012878      0.049273
     14.71752      1.90046     26.67800        -0.021281      0.020837      0.082395
     10.19225      9.21349     26.71861        -0.024650      0.039427      0.022388
     20.42261     11.77910     26.68171        -0.017167     -0.021332      0.067259
     16.36135      4.23811     26.66723         0.026038     -0.027482      0.023969
     13.08522      4.27370     26.70529         0.005686     -0.073028      0.040178
     17.56649     12.02487     26.70700         0.004758      0.013880      0.018849
     19.18161      9.18531     26.67815         0.046773      0.066660      0.070379
     24.97860     12.76769     28.78999        -0.011733     -0.007668     -0.120019
      1.53566      2.51831     28.82907         0.030557      0.016862     -0.103875
     10.23632      2.52401     28.83280        -0.033278     -0.008334     -0.115610
      4.47381      7.59636     28.82992        -0.014357     -0.031511     -0.106627
      7.29082      7.59825     28.82816         0.006348     -0.016213     -0.102646
     23.54167     15.27159     28.77488         0.006704     -0.020469     -0.109910
      2.94820      0.08420     28.82992         0.024205      0.005640     -0.105439
      8.82052      0.08559     28.83003         0.006596     -0.011172     -0.103994
     22.08938     12.75158     28.77311        -0.005118      0.005124     -0.110284
      8.73885      5.04714     28.83358        -0.021040     -0.012790     -0.130664
      3.03060      5.04353     28.83251         0.013362     -0.011438     -0.126048
      5.88538      0.10890     28.83340        -0.000314      0.029547     -0.137928
     23.53099     10.18330     28.86469         0.052506      0.022778     -0.191729
     11.76548      0.00592     28.86107        -0.000764     -0.021586     -0.179131
     17.66557      0.01387     28.86377        -0.028409      0.001055     -0.190187
      5.88312      5.07597     28.84511         0.014011     -0.037956     -0.136776
      7.34231      2.55938     28.84403        -0.031248      0.032592     -0.133483
      4.43183      2.56067     28.84060         0.024253      0.015772     -0.119997
     14.70713     10.23326     28.94979         0.007410      0.046119     -0.046171
     16.22487      7.61410     28.94243         0.044134     -0.005309     -0.121276
      8.70301     10.13241     28.90666        -0.050157      0.016390     -0.145089
     13.24107      7.59671     28.92554        -0.040001     -0.005595     -0.041360
     13.13312      2.48962     28.89441        -0.009610     -0.029234     -0.133627
     20.70697     10.11155     28.89038         0.006841      0.008878     -0.138987
     16.29750      2.49506     28.89300         0.021199     -0.042318     -0.116530
     10.29299     12.88036     28.90668        -0.011025      0.008803     -0.127329
     19.12506     12.86153     28.89533         0.049038      0.065255     -0.102084
     17.69194     10.20341     28.95261        -0.004680     -0.000843     -0.084774
     11.73375     10.20334     28.95992         0.009029     -0.000082     -0.089289
     14.73143      5.05800     28.94443         0.013191     -0.012525     -0.094163
     10.15833      7.56231     28.90582        -0.055636     -0.021107     -0.081966
     11.62666      5.02371     28.90120        -0.039397     -0.044361     -0.089445
     19.26624      7.54822     28.88451         0.070404     -0.006915     -0.080054
     17.81003      5.01685     28.87881         0.040447     -0.046705     -0.060230
     13.25053     12.91330     28.90775        -0.058866      0.049613     -0.109467
     16.18035     12.91278     28.90392         0.045099      0.043122     -0.115993
      1.47210      0.84841     31.20329        -0.012846     -0.002445      0.167755
      4.41626      0.84841     31.20329        -0.012902      0.067741      0.200567
      7.36041      0.84841     31.20329         0.007096      0.068492      0.210290
     10.30457      0.84841     31.20329         0.010389     -0.010017      0.163056
     13.24873      0.84841     31.20329         0.114416     -0.025139      0.141727
     16.19290      0.84841     31.20329        -0.125829     -0.014960      0.136517
      2.94408      3.39605     31.20329         0.051170     -0.039670      0.194836
      5.88824      3.39605     31.20329        -0.001774     -0.000718      0.216701
      8.83240      3.39605     31.20329        -0.056951     -0.039661      0.205936
     11.77656      3.39605     31.20329        -0.008384      0.000679      0.220160
     14.72072      3.39605     31.20329        -0.004654     -0.106231      0.105876
     17.66488      3.39605     31.20329         0.007678      0.024128      0.177761
      4.41607      5.94369     31.20329         0.053764     -0.024040      0.205288
      7.36023      5.94369     31.20329        -0.063594     -0.018207      0.202242
     10.30439      5.94369     31.20329        -0.040027     -0.015235      0.235571
     13.24855      5.94369     31.20329        -0.059709     -0.047975      0.161971
     16.19271      5.94369     31.20329         0.086904     -0.068535      0.178345
     19.13687      5.94369     31.20329         0.014324     -0.016612      0.164118
      5.88805      8.49134     31.20329        -0.000180      0.012421      0.164802
      8.83221      8.49134     31.20329        -0.023756     -0.012259      0.241678
     11.77637      8.49134     31.20329        -0.032954     -0.068651      0.120637
     14.72053      8.49134     31.20329        -0.014494     -0.011830      0.210713
     17.66469      8.49134     31.20329         0.084099     -0.044501      0.170966
     20.60885      8.49134     31.20329        -0.012981     -0.023532      0.181850
      7.36004     11.03898     31.20329         0.001652      0.124915      0.179870
     10.30420     11.03898     31.20329        -0.107424      0.066457      0.127750
     13.24836     11.03898     31.20329        -0.027501      0.091934      0.200850
     16.19252     11.03898     31.20329         0.009893      0.085390      0.169962
     19.13668     11.03898     31.20329         0.101062      0.055345      0.100549
     22.08084     11.03898     31.20329        -0.062476      0.118206      0.137120
      8.83202     13.58662     31.20329        -0.103289     -0.066357      0.190727
     11.77618     13.58662     31.20329        -0.000426      0.031005      0.249821
     14.72034     13.58662     31.20329         0.000555      0.055551      0.257479
     17.66450     13.58662     31.20329         0.001533      0.026312      0.219233
     20.60866     13.58662     31.20329         0.077334     -0.086033      0.129112
     23.55282     13.58662     31.20329        -0.021306      0.012636     -0.163069
      2.94415      1.69757     33.59462        -0.022982     -0.012076     -0.157477
      5.88831      1.69757     33.59462         0.000448      0.001222     -0.142093
      8.83247      1.69757     33.59462         0.019902     -0.012290     -0.160762
     11.77663      1.69757     33.59462        -0.023214      0.022714     -0.101680
     14.72079      1.69757     33.59462        -0.001766      0.001688     -0.111485
     17.66495      1.69757     33.59462         0.028037      0.027256     -0.101585
      4.41613      4.24522     33.59462         0.002404     -0.001182     -0.141690
      7.36029      4.24522     33.59462        -0.003152     -0.002430     -0.141700
     10.30445      4.24522     33.59462         0.034762      0.027820     -0.066122
     13.24861      4.24522     33.59462        -0.010049      0.034217     -0.020564
     16.19277      4.24522     33.59462         0.009022      0.031410     -0.021415
     19.13693      4.24522     33.59462        -0.031212      0.023833     -0.065382
      5.88812      6.79286     33.59462        -0.003441      0.026769     -0.155866
      8.83228      6.79286     33.59462         0.044832      0.014626     -0.065660
     11.77644      6.79286     33.59462         0.010218      0.006540     -0.004951
     14.72060      6.79286     33.59462        -0.000409      0.014094     -0.018698
     17.66476      6.79286     33.59462        -0.013464      0.009985     -0.008090
     20.60892      6.79286     33.59462        -0.037230      0.012522     -0.065916
      7.36010      9.34050     33.59462         0.012086     -0.035112     -0.100218
     10.30426      9.34050     33.59462         0.021922     -0.025954     -0.016302
     13.24842      9.34050     33.59462         0.010781     -0.007585     -0.018213
     16.19258      9.34050     33.59462        -0.013424     -0.007939     -0.017406
     19.13674      9.34050     33.59462        -0.023380     -0.027217     -0.018934
     22.08090      9.34050     33.59462        -0.008084     -0.037022     -0.100802
      8.83209     11.88814     33.59462        -0.000277     -0.000568     -0.107357
     11.77625     11.88814     33.59462         0.037309     -0.007841     -0.017905
     14.72041     11.88814     33.59462        -0.000644     -0.012483     -0.002904
     17.66457     11.88814     33.59462        -0.035303     -0.006741     -0.014547
     20.60873     11.88814     33.59462        -0.000302     -0.001959     -0.112191
     23.55289     11.88814     33.59462         0.004721     -0.007914     -0.150670
     10.30407     14.43578     33.59462         0.034073      0.005646     -0.101735
     13.24824     14.43578     33.59462         0.006651     -0.045807     -0.064864
     16.19240     14.43578     33.59462        -0.007528     -0.044719     -0.065093
     19.13655     14.43578     33.59462        -0.033104      0.008081     -0.101211
     22.08071     14.43578     33.59462        -0.010262      0.006866     -0.153142
     25.02488     14.43578     33.59462         0.012029     -0.001863     -0.151947
 -----------------------------------------------------------------------------------
    total drift:                                0.017973      0.018386     -0.102744


--------------------------------------------------------------------------------------------------------



  FREE ENERGIE OF THE ION-ELECTRON SYSTEM (eV)
  ---------------------------------------------------
  free  energy   TOTEN  =      -984.84490854 eV

  energy  without entropy=     -984.62753659  energy(sigma->0) =     -984.73622257
 


--------------------------------------------------------------------------------------------------------


    POTLOK:  cpu time      7.7725: real time      7.7745


--------------------------------------------------------------------------------------------------------


 stress matrix after NEB project (eV)
   -213.79068     -1.03584     -2.69449
     -1.03584   -215.92860      0.34880
     -2.69449      0.34880      1.15443
  FORCES: max atom, RMS     0.341864    0.139241
  FORCE total and by dimension    2.354782    0.257479
  Stress total and by dimension  303.891188  215.928596
     LOOP+:  cpu time  53731.0106: real time  53764.8667
    4ORBIT:  cpu time      0.0000: real time      0.0000

 total amount of memory used by VASP MPI-rank0  1135777. kBytes
=======================================================================

   base      :      30000. kBytes
   nonlr-proj:      64524. kBytes
   fftplans  :     171024. kBytes
   grid      :      86317. kBytes
   one-center:        559. kBytes
   wavefun   :     783353. kBytes
 
  
  
 General timing and accounting informations for this job:
 ========================================================
  
                  Total CPU time used (sec):    54238.191
                            User time (sec):    53363.480
                          System time (sec):      874.713
                         Elapsed time (sec):    54273.530
  
                   Maximum memory used (kb):     1693768.
                   Average memory used (kb):          N/A
  
                          Minor page faults:    123562931
                          Major page faults:           12
                 Voluntary context switches:       546136
