 vasp.6.4.2 20Jul23 (build Mar 06 2024 09:06:46) complex                        
  
 executed on             LinuxIFC date 2024.03.07  22:53:47
 running   32 mpi-ranks, on    1 nodes
 distrk:  each k-point on   32 cores,    1 groups
 distr:  one band on NCORE=  16 cores,    2 groups


--------------------------------------------------------------------------------------------------------


 INCAR:
   SYSTEM = Au_FRESH_TRAIN	
   ISMEAR = 0 		
   SIGMA = 0.05           	
   IVDW = 12
   ENCUT = 450
   PREC = Accurate 	
   LASPH = TRUE 		
   NELM = 400
   NELMIN = 5
   EDIFF = 1E-6
   IBRION = 0
   ISIF = 3
   NSW = 0
   EDIFFG = -0.01
   ALGO = Fast
   LREAL = Auto
   LWAVE = False
   LCHARG = False
   AMIN = 0.01
   ADDGRID = TRUE
   NCORE = 16

 POTCAR:    PAW_PBE Au 04Oct2007                  
 -----------------------------------------------------------------------------
|                                                                             |
|           W    W    AA    RRRRR   N    N  II  N    N   GGGG   !!!           |
|           W    W   A  A   R    R  NN   N  II  NN   N  G    G  !!!           |
|           W    W  A    A  R    R  N N  N  II  N N  N  G       !!!           |
|           W WW W  AAAAAA  RRRRR   N  N N  II  N  N N  G  GGG   !            |
|           WW  WW  A    A  R   R   N   NN  II  N   NN  G    G                |
|           W    W  A    A  R    R  N    N  II  N    N   GGGG   !!!           |
|                                                                             |
|     For optimal performance we recommend to set                             |
|       NCORE = 2 up to number-of-cores-per-socket                            |
|     NCORE specifies how many cores store one orbital (NPAR=cpu/NCORE).      |
|     This setting can greatly improve the performance of VASP for DFT.       |
|     The default, NCORE=1 might be grossly inefficient on modern             |
|     multi-core architectures or massively parallel machines. Do your        |
|     own testing! More info at https://www.vasp.at/wiki/index.php/NCORE      |
|     Unfortunately you need to use the default for GW and RPA                |
|     calculations (for HF NCORE is supported but not extensively tested      |
|     yet).                                                                   |
|                                                                             |
 -----------------------------------------------------------------------------

 POTCAR:    PAW_PBE Au 04Oct2007                  
   VRHFIN =Au: s1d10                                                                                
   LEXCH  = PE                                                                                      
   EATOM  =   926.0867 eV,   68.0654 Ry                                                             
                                                                                                    
   TITEL  = PAW_PBE Au 04Oct2007                                                                    
   LULTRA =        F    use ultrasoft PP ?                                                          
   IUNSCR =        1    unscreen: 0-lin 1-nonlin 2-no                                               
   RPACOR =    2.330    partial core radius                                                         
   POMASS =  196.966; ZVAL   =   11.000    mass and valenz                                          
   RCORE  =    2.500    outmost cutoff radius                                                       
   RWIGS  =    2.840; RWIGS  =    1.503    wigner-seitz radius (au A)                               
   ENMAX  =  229.943; ENMIN  =  172.457 eV                                                          
   ICORE  =        3    local potential                                                             
   LCOR   =        T    correct aug charges                                                         
   LPAW   =        T    paw PP                                                                      
   EAUG   =  356.670                                                                                
   DEXC   =    0.000                                                                                
   RMAX   =    2.562    core radius for proj-oper                                                   
   RAUG   =    1.300    factor for augmentation sphere                                              
   RDEP   =    2.598    radius for radial grids                                                     
   RDEPT  =    2.193    core radius for aug-charge                                                  
                                                                                                    
   Atomic configuration                                                                             
   16 entries                                                                                       
     n  l   j            E        occ.                                                              
     1  0  0.50    -80748.5001   2.0000                                                             
     2  0  0.50    -14244.7466   2.0000                                                             
     2  1  1.50    -12310.9591   6.0000                                                             
     3  0  0.50     -3362.1768   2.0000                                                             
     3  1  1.50     -2801.5463   6.0000                                                             
     3  2  2.50     -2203.8206  10.0000                                                             
     4  0  0.50      -729.8168   2.0000                                                             
     4  1  1.50      -546.0527   6.0000                                                             
     4  2  2.50      -325.7302  10.0000                                                             
     4  3  3.50       -81.1472  14.0000                                                             
     5  0  0.50      -108.3201   2.0000                                                             
     5  1  1.50       -59.7479   6.0000                                                             
     5  2  2.50        -6.8783  10.0000                                                             
     6  0  0.50        -5.7602   1.0000                                                             
     6  1  1.50        -6.8029   0.0000                                                             
     5  3  2.50        -1.3606   0.0000                                                             
   Description                                                                                      
     l       E           TYP  RCUT    TYP  RCUT                                                     
     2     -6.8782861     23  2.500                                                                 
     2     -8.2388687     23  2.500                                                                 
     0     -5.7601759     23  2.500                                                                 
     0     -0.8493231     23  2.500                                                                 
     1     -2.7211652     23  2.500                                                                 
     1     27.2116520     23  2.500                                                                 
     3     -1.3605826     23  2.500                                                                 
  local pseudopotential read in
  partial core-charges read in
  partial kinetic energy density read in
  atomic valenz-charges read in
  non local Contribution for L=           2  read in
    real space projection operators read in
  non local Contribution for L=           2  read in
    real space projection operators read in
  non local Contribution for L=           0  read in
    real space projection operators read in
  non local Contribution for L=           0  read in
    real space projection operators read in
  non local Contribution for L=           1  read in
    real space projection operators read in
  non local Contribution for L=           1  read in
    real space projection operators read in
    PAW grid and wavefunctions read in
 
   number of l-projection  operators is LMAX  =           6
   number of lm-projection operators is LMMAX =          18
 
 Optimization of the real space projectors (new method)

 maximal supplied QI-value         = 15.12
 optimisation between [QCUT,QGAM] = [ 10.73, 21.62] = [ 32.26,130.87] Ry 
 Optimized for a Real-space Cutoff    1.51 Angstroem

   l    n(q)    QCUT    max X(q) W(low)/X(q) W(high)/X(q)  e(spline) 
   2      9    10.734    60.898    0.91E-04    0.24E-03    0.27E-06
   2      9    10.734    58.894    0.92E-04    0.24E-03    0.27E-06
   0     10    10.734   109.617    0.32E-04    0.87E-04    0.14E-06
   0     10    10.734    75.026    0.29E-04    0.84E-04    0.14E-06
   1      9    10.734    16.344    0.16E-03    0.95E-04    0.12E-06
   1      9    10.734    10.160    0.13E-03    0.80E-04    0.97E-07
  PAW_PBE Au 04Oct2007                  :
 energy of atom  1       EATOM= -926.0867
 kinetic energy error for atom=    0.0057 (will be added to EATOM!!)
 
 
 POSCAR: System 1209
  positions in cartesian coordinates
  No initial velocities read in
 exchange correlation table for  LEXCH =        8
   RHO(1)=    0.500       N(1)  =     2000
   RHO(2)=  100.500       N(2)  =     4000

 VTST: version 4.1, (05/19/21)

 CHAIN: initializing optimizer
 
 OPT: Using VASP Dynamics algorithm
 CHAIN: Read ICHAIN            0
 
 POSCAR: System 1209
  positions in cartesian coordinates
  No initial velocities read in
 


--------------------------------------------------------------------------------------------------------


 ion  position               nearest neighbor table
   1  0.006  0.047  0.150-  26 2.70  76 2.83  83 2.86  34 2.86 100 2.89  10 2.89  28 2.89  11 2.94
                             2 3.02  75 3.04   3 3.23   4 3.28  25 3.42
   2  0.030  0.220  0.322-  76 2.72   5 2.78   3 2.78   4 2.83   8 2.86  15 2.90  80 2.92  17 2.92
                             1 3.02  87 3.03  13 3.07  75 3.17  26 3.59
   3  0.197  0.075  0.323-  38 2.72   2 2.78  41 2.81  26 2.83  28 2.87   8 2.88  32 2.88  37 2.95
                            62 2.98   5 3.05   4 3.10   1 3.23
   4  0.172  0.250  0.145-  49 2.69  23 2.73  13 2.76  11 2.82   2 2.83  15 2.85  10 2.88   3 3.10
                            38 3.10  46 3.13  37 3.19   1 3.28
   5  0.030  0.087  0.504-  80 2.65  32 2.68   2 2.78   7 2.78   6 2.82  26 2.83  79 2.92   8 2.98
                            30 2.99   3 3.05 104 3.15  75 3.22
   6  0.012  0.257  0.656-  91 2.52  21 2.66  80 2.68  17 2.73   5 2.82  19 2.94   9 2.97  84 2.99
                            12 2.99   7 3.02  79 3.13   8 3.24
   7  0.188  0.092  0.662-  42 2.72   9 2.77   5 2.78  12 2.81  32 2.84  41 2.94  45 2.98   6 3.02
                            66 3.04   8 3.05  30 3.10  36 3.30
   8  0.199  0.253  0.474-  53 2.65  38 2.73  15 2.77  42 2.83  17 2.84   2 2.86   3 2.88  41 2.96
                             5 2.98   7 3.05  19 3.08   6 3.24
   9  0.030  0.080  0.818-  10 2.67   7 2.77  30 2.78  84 2.89  12 2.89  11 2.91   6 2.97  34 3.05
                            79 3.08  36 3.14  83 3.21 108 3.22
  10  0.007  0.214  0.987-   9 2.67  11 2.79  83 2.79  21 2.85   4 2.88  84 2.89   1 2.89  95 2.94
                            13 2.95  76 2.99  12 3.03  23 3.25
  11  0.182  0.077  0.996-  37 2.79  10 2.79   4 2.82  28 2.89   9 2.91  45 2.93   1 2.94  46 2.96
                            12 3.03  36 3.11  70 3.13  34 3.19
  12  0.184  0.253  0.824-  46 2.77  21 2.78  23 2.80   7 2.81  19 2.84   9 2.89  42 2.91   6 2.99
                            10 3.03  11 3.03  57 3.05  45 3.26
  13  0.005  0.394  0.145-  95 2.58  22 2.71   4 2.76  76 2.84  87 2.88  15 2.91  23 2.92  10 2.95
                            14 3.02  88 3.03   2 3.07  16 3.13
  14  0.009  0.574  0.311-  99 2.72  88 2.79  16 2.82  15 2.88  92 2.92  29 2.98  27 2.99  25 3.01
                            13 3.02  17 3.06  20 3.08  87 3.10
  15  0.168  0.408  0.314-  16 2.64  17 2.75   8 2.77   4 2.85  14 2.88   2 2.90  13 2.91  20 2.97
                            53 3.01  49 3.05  50 3.05  38 3.21
  16  0.186  0.565  0.170-  15 2.64  61 2.77  50 2.78  14 2.82  58 2.88  27 2.92  23 2.93  22 2.94
                            35 2.99  49 3.10  13 3.13  25 3.37
  17  0.022  0.395  0.482-   6 2.73  15 2.75  92 2.81  80 2.83   8 2.84   2 2.92  87 2.95  18 2.99
                            19 3.02  20 3.03  14 3.06  91 3.17
  18  0.006  0.565  0.654- 103 2.72  92 2.84  24 2.88  29 2.89  19 2.90  91 2.95  96 2.96  17 2.99
                            33 3.02  31 3.03  20 3.04  21 3.10
  19  0.184  0.416  0.662-  24 2.72  57 2.80  12 2.84  18 2.90  42 2.92  20 2.92  53 2.94   6 2.94
                            54 3.01  17 3.02  21 3.07   8 3.08
  20  0.184  0.575  0.486-  27 2.83  53 2.84  65 2.86  50 2.87  29 2.88  19 2.92  15 2.97  31 2.99
                            54 3.02  17 3.03  18 3.04  14 3.08
  21  0.006  0.385  0.830-  95 2.64   6 2.66  91 2.67  12 2.78  10 2.85  84 2.93  23 2.97  22 3.06
                            19 3.07  24 3.09  18 3.10  96 3.12
  22  0.017  0.561  0.004-  13 2.71  95 2.72  23 2.81  35 2.85 107 2.90  16 2.94  24 2.96  96 2.97
                            88 3.00  21 3.06  33 3.19  25 3.30
  23  0.181  0.408  0.990-  58 2.72   4 2.73  12 2.80  22 2.81  49 2.88  24 2.91  13 2.92  16 2.93
                            21 2.97  46 3.02  57 3.14  10 3.25
  24  0.169  0.571  0.819-  19 2.72  31 2.84  18 2.88  23 2.91  33 2.93  35 2.95  57 2.96  22 2.96
                            69 2.99  58 3.06  21 3.09  54 3.21
  25  0.013  0.772  0.168-  99 2.67  34 2.78  28 2.82 100 2.82  26 2.85  27 2.87 107 2.88  35 2.91
                            14 3.01  22 3.30  88 3.35  16 3.37   1 3.42
  26  0.023  0.931  0.336-   1 2.70  75 2.74  32 2.78   5 2.83   3 2.83  25 2.85 104 2.89  28 3.05
                            27 3.06  29 3.10  99 3.12 100 3.30   2 3.59
  27  0.178  0.742  0.327-  65 2.81  20 2.83  29 2.87  25 2.87  16 2.92  28 2.93  62 2.95  14 2.99
                            50 3.02  61 3.04  26 3.06  32 3.15
  28  0.191  0.909  0.159-  62 2.76  25 2.82  37 2.84   3 2.87  11 2.89   1 2.89  70 2.93  27 2.93
                            35 2.98  61 3.04  26 3.05  34 3.23
  29  0.017  0.734  0.492- 103 2.77 104 2.83  99 2.84  27 2.87  20 2.88  31 2.88  18 2.89  14 2.98
                            30 3.09  32 3.10  26 3.10  92 3.14
  30  0.019  0.910  0.670-  33 2.77   9 2.78  32 2.82 104 2.85  31 2.86 108 2.87  79 2.93  36 2.93
                             5 2.99 103 3.07  29 3.09   7 3.10
  31  0.173  0.741  0.664-  36 2.74  33 2.80  24 2.84  30 2.86  66 2.87  29 2.88  69 2.95  65 2.97
                            20 2.99  18 3.03  32 3.03  54 3.15
  32  0.172  0.926  0.503-   5 2.68  26 2.78  30 2.82  66 2.83   7 2.84  41 2.87   3 2.88  31 3.03
                            65 3.05  29 3.10  27 3.15  62 3.33
  33  0.011  0.744  0.820-  34 2.65  30 2.77  31 2.80 103 2.83  36 2.85  96 2.86 108 2.91 107 2.92
                            35 2.92  24 2.93  18 3.02  22 3.19
  34  0.007  0.892  0.976-  33 2.65 107 2.76  25 2.78  35 2.84 108 2.86   1 2.86  36 2.88  83 3.03
                             9 3.05 100 3.17  11 3.19  28 3.23
  35  0.167  0.733  0.996-  36 2.77  34 2.84  22 2.85  61 2.89  25 2.91  33 2.92  24 2.95  28 2.98
                            16 2.99  70 3.06  58 3.09  69 3.23
  36  0.188  0.886  0.832-  31 2.74  35 2.77  70 2.80  33 2.85  66 2.86  34 2.88  69 2.92  30 2.93
                            45 2.93  11 3.11   9 3.14   7 3.30
  37  0.352  0.069  0.142-  11 2.79  28 2.84  47 2.88  70 2.90  38 2.92  64 2.92   3 2.95  62 2.95
                            46 2.99  40 3.04  39 3.07   4 3.19
  38  0.351  0.228  0.318-   3 2.72   8 2.73  49 2.76  40 2.83  41 2.87  51 2.88  39 2.91  37 2.92
                            44 3.01  53 3.05   4 3.10  15 3.21
  39  0.518  0.067  0.326-  74 2.79  77 2.85  68 2.88  44 2.89  73 2.90  38 2.91  41 2.92  40 2.95
                            62 2.96  64 2.97  98 2.99  37 3.07
  40  0.519  0.244  0.165-  49 2.73  51 2.76  74 2.80  38 2.83  82 2.84  59 2.89  85 2.89  39 2.95
                            47 3.01  37 3.04  73 3.18  46 3.19
  41  0.350  0.071  0.490-   3 2.81  68 2.83  38 2.87  32 2.87  39 2.92  42 2.94   7 2.94  66 2.95
                             8 2.96  44 2.98  43 3.07  62 3.11
  42  0.343  0.245  0.652-   7 2.72   8 2.83  53 2.90  12 2.91  19 2.92  41 2.94  57 2.95  55 2.99
                            44 3.02  43 3.08  48 3.15  45 3.26
  43  0.519  0.075  0.671-  78 2.84  81 2.87  72 2.87  48 2.90  45 2.91 102 2.92  68 2.94  77 2.97
                            44 2.98  41 3.07  42 3.08  66 3.16
  44  0.522  0.235  0.489-  74 2.83  51 2.87  89 2.87  77 2.88  55 2.89  39 2.89  41 2.98  43 2.98
                            78 2.98  38 3.01  42 3.02  53 3.17
  45  0.352  0.053  0.834-  70 2.73  72 2.76  46 2.84  47 2.85  66 2.89  43 2.91  36 2.93  11 2.93
                             7 2.98  12 3.26  42 3.26  48 3.30
  46  0.352  0.239  0.969-  12 2.77  49 2.78  48 2.81  45 2.84  47 2.94  11 2.96  37 2.99  23 3.02
                            57 3.04  59 3.08   4 3.13  40 3.19
  47  0.522  0.078  0.986-  81 2.77  82 2.81  45 2.85  37 2.88  48 2.90  64 2.92  73 2.92  46 2.94
                           106 2.99  40 3.01  72 3.04  70 3.14
  48  0.527  0.251  0.826-  55 2.75  46 2.81  78 2.89  43 2.90  47 2.90  93 2.93  59 2.94  82 2.94
                            57 3.08  42 3.15  81 3.17  45 3.30
  49  0.346  0.376  0.149-   4 2.69  40 2.73  38 2.76  46 2.78  23 2.88  59 2.92  58 2.92  51 2.95
                            15 3.05  16 3.10  52 3.17  50 3.22
  50  0.349  0.571  0.323-  52 2.71  16 2.78  53 2.79  63 2.82  61 2.84  20 2.87  51 2.90  56 2.96
                            65 2.98  27 3.02  15 3.05  49 3.22
  51  0.505  0.399  0.325-  40 2.76  56 2.79  53 2.85  52 2.85  44 2.87  38 2.88  50 2.90  86 2.94
                            49 2.95  74 3.10  89 3.11  85 3.16
  52  0.506  0.572  0.172-  50 2.71  61 2.77  63 2.77  51 2.85  59 2.88  71 2.92  94 2.92  97 2.93
                            86 2.99  58 3.01  49 3.17  85 3.27
  53  0.340  0.411  0.484-   8 2.65  50 2.79  20 2.84  51 2.85  42 2.90  54 2.91  19 2.94  56 2.96
                            15 3.01  38 3.05  44 3.17  55 3.18
  54  0.363  0.577  0.651-  57 2.69  69 2.70  67 2.79  56 2.88  65 2.91  53 2.91  60 2.93  19 3.01
                            20 3.02  55 3.04  31 3.15  24 3.21
  55  0.527  0.398  0.658-  48 2.75  57 2.86  44 2.89  89 2.90  60 2.90  90 2.91  56 2.92  78 2.96
                            42 2.99  54 3.04  93 3.05  53 3.18
  56  0.524  0.559  0.484-  63 2.75  51 2.79  67 2.80  54 2.88  55 2.92 101 2.96  50 2.96  53 2.96
                            86 2.96  89 2.98  90 3.01  65 3.31
  57  0.355  0.426  0.808-  54 2.69  60 2.78  19 2.80  58 2.81  55 2.86  42 2.95  24 2.96  46 3.04
                            12 3.05  48 3.08  23 3.14  59 3.19
  58  0.340  0.556  0.996-  23 2.72  61 2.74  57 2.81  16 2.88  49 2.92  59 2.93  52 3.01  71 3.01
                            69 3.03  24 3.06  35 3.09  60 3.18
  59  0.525  0.412  0.002-  94 2.81  52 2.88  85 2.89  40 2.89  49 2.92  58 2.93  60 2.93  48 2.94
                            82 2.97  46 3.08  93 3.11  57 3.19
  60  0.527  0.567  0.821- 105 2.67  57 2.78  71 2.86  55 2.90  69 2.90  67 2.92  54 2.93  59 2.93
                            90 3.02  93 3.02  94 3.10  58 3.18
  61  0.343  0.719  0.147-  58 2.74  52 2.77  16 2.77  50 2.84  71 2.86  35 2.89  70 2.91  62 2.96
                            28 3.04  27 3.04  63 3.15  64 3.18
  62  0.355  0.896  0.308-  28 2.76  64 2.85  65 2.90  63 2.91  27 2.95  37 2.95  61 2.96  39 2.96
                             3 2.98  68 3.04  41 3.11  32 3.33
  63  0.512  0.726  0.337-  56 2.75  52 2.77  50 2.82  65 2.90  62 2.91  97 2.93 101 2.95  98 3.02
                            68 3.03  61 3.15  64 3.21  86 3.27
  64  0.518  0.905  0.147-  73 2.70 106 2.80  97 2.85  62 2.85  70 2.87  47 2.92  37 2.92  71 2.94
                            39 2.97  98 3.13  61 3.18  63 3.21
  65  0.336  0.746  0.489-  66 2.80  27 2.81  20 2.86  62 2.90  63 2.90  54 2.91  31 2.97  68 2.97
                            50 2.98  32 3.05  67 3.10  56 3.31
  66  0.338  0.900  0.657-  65 2.80  32 2.83  36 2.86  31 2.87  45 2.89  68 2.89  72 2.91  69 2.95
                            41 2.95   7 3.04  43 3.16  67 3.29
  67  0.532  0.723  0.642- 105 2.79  54 2.79  56 2.80 101 2.88  68 2.91  60 2.92 102 2.95  90 2.98
                            72 3.08  69 3.09  65 3.10  66 3.29
  68  0.509  0.910  0.499-  41 2.83 102 2.84  77 2.86  39 2.88  66 2.89  67 2.91  43 2.94  65 2.97
                            98 2.98  63 3.03  62 3.04 101 3.38
  69  0.354  0.722  0.815-  54 2.70  72 2.90  60 2.90  36 2.92  71 2.93  31 2.95  66 2.95  70 2.99
                            24 2.99  58 3.03  67 3.09  35 3.23
  70  0.352  0.893  0.987-  45 2.73  36 2.80  72 2.83  64 2.87  37 2.90  71 2.90  61 2.91  28 2.93
                            69 2.99  35 3.06  11 3.13  47 3.14
  71  0.512  0.725  0.991- 106 2.83  61 2.86  60 2.86  94 2.88  70 2.90  52 2.92  97 2.93  69 2.93
                            64 2.94  72 2.99 105 3.00  58 3.01
  72  0.507  0.896  0.820-  45 2.76  70 2.83 106 2.83  43 2.87  69 2.90  66 2.91  81 2.92  71 2.99
                           102 3.01  47 3.04 105 3.07  67 3.08
  73  0.680  0.046  0.158- 100 2.60  64 2.70  83 2.87  98 2.88  39 2.90  47 2.92  75 2.93 106 2.94
                            74 2.98  82 2.99  76 3.17  40 3.18
  74  0.679  0.222  0.323-  39 2.79  40 2.80  44 2.83  77 2.84  76 2.89  75 2.93  87 2.93  89 2.94
                            85 2.94  73 2.98  51 3.10  80 3.20
  75  0.841  0.052  0.331-  26 2.74  98 2.77  76 2.80 104 2.83 100 2.84  77 2.84  73 2.93  74 2.93
                            80 2.98   1 3.04   2 3.17   5 3.22
  76  0.863  0.220  0.181-  87 2.63   2 2.72  75 2.80   1 2.83  13 2.84  74 2.89  10 2.99  83 3.00
                            85 3.01  82 3.13  73 3.17  95 3.26
  77  0.677  0.065  0.491- 102 2.77  74 2.84  98 2.84  75 2.84  39 2.85  68 2.86  44 2.88  79 2.89
                            78 2.89  43 2.97 104 3.10  80 3.16
  78  0.690  0.225  0.662-  84 2.75  79 2.79  43 2.84  91 2.87  77 2.89  48 2.89  89 2.91  55 2.96
                            44 2.98  93 3.01  81 3.02  80 3.06
  79  0.847  0.068  0.650-  80 2.74 104 2.77  78 2.79  84 2.79 108 2.89  77 2.89 102 2.91   5 2.92
                            30 2.93  81 3.07   9 3.08   6 3.13
  80  0.871  0.226  0.495-   5 2.65   6 2.68  79 2.74  17 2.83  87 2.92   2 2.92  91 2.94  75 2.98
                            89 3.03  78 3.06  77 3.16  74 3.20
  81  0.682  0.050  0.833- 108 2.70 106 2.70  47 2.77  83 2.79 102 2.85  43 2.87  84 2.89  72 2.92
                            78 3.02  79 3.07  82 3.11  48 3.17
  82  0.683  0.234  0.005-  85 2.71  47 2.81  40 2.84  83 2.87  48 2.94  59 2.97  73 2.99  84 3.03
                            93 3.03  81 3.11  76 3.13  95 3.13
  83  0.840  0.067  0.993-  81 2.79  84 2.79  10 2.79   1 2.86  73 2.87  82 2.87 100 2.91 108 2.94
                            76 3.00  34 3.03 106 3.09   9 3.21
  84  0.843  0.216  0.822-  91 2.75  78 2.75  83 2.79  79 2.79  10 2.89   9 2.89  81 2.89  93 2.91
                            21 2.93   6 2.99  82 3.03  95 3.13
  85  0.696  0.393  0.157-  86 2.67  82 2.71  87 2.77  94 2.82  88 2.82  59 2.89  40 2.89  74 2.94
                            95 2.97  76 3.01  51 3.16  52 3.27
  86  0.694  0.539  0.318-  88 2.62  85 2.67  87 2.76  89 2.83  92 2.87  51 2.94  56 2.96  52 2.99
                           101 2.99  97 3.11  63 3.27  99 3.28
  87  0.850  0.383  0.318-  76 2.63  86 2.76  85 2.77  92 2.84  13 2.88  89 2.92  80 2.92  74 2.93
                            17 2.95  88 2.97   2 3.03  14 3.10
  88  0.838  0.568  0.166-  86 2.62  94 2.68  14 2.79  85 2.82  99 2.85 107 2.88  97 2.96  87 2.97
                            95 2.98  22 3.00  13 3.03  25 3.35
  89  0.692  0.390  0.492-  92 2.78  90 2.81  86 2.83  44 2.87  55 2.90  78 2.91  87 2.92  74 2.94
                            56 2.98  80 3.03  91 3.05  51 3.11
  90  0.699  0.554  0.651-  89 2.81  92 2.81  93 2.86 105 2.88  91 2.90  55 2.91 101 2.91 103 2.93
                            96 2.96  67 2.98  56 3.01  60 3.02
  91  0.856  0.383  0.675-   6 2.52  21 2.67  93 2.68  84 2.75  78 2.87  90 2.90  80 2.94  18 2.95
                            89 3.05  92 3.06  96 3.13  17 3.17
  92  0.854  0.542  0.485-  89 2.78  17 2.81  90 2.81  18 2.84  87 2.84  86 2.87  14 2.92 101 2.92
                           103 3.04  91 3.06  29 3.14  99 3.15
  93  0.704  0.404  0.828-  91 2.68  95 2.85  90 2.86  96 2.86  84 2.91  48 2.93  78 3.01  60 3.02
                            82 3.03  55 3.05  59 3.11  94 3.13
  94  0.682  0.572  0.017-  88 2.68  97 2.74  59 2.81  85 2.82  71 2.88  52 2.92 107 2.98  96 3.08
                           105 3.08  60 3.10  93 3.13  95 3.14
  95  0.867  0.404  0.990-  13 2.58  21 2.64  22 2.72  93 2.85  96 2.92  10 2.94  85 2.97  88 2.98
                            84 3.13  82 3.13  94 3.14  76 3.26
  96  0.850  0.581  0.834- 107 2.75 105 2.78  93 2.86  33 2.86 103 2.88  95 2.92  90 2.96  18 2.96
                            22 2.97  94 3.08  21 3.12  91 3.13
  97  0.672  0.738  0.164-  94 2.74 100 2.81  64 2.85  98 2.88 106 2.92  63 2.93  71 2.93  52 2.93
                            88 2.96 107 3.09  99 3.09  86 3.11
  98  0.684  0.895  0.337-  75 2.77 101 2.82 100 2.83  77 2.84  97 2.88  73 2.88  68 2.98  39 2.99
                            99 3.00  63 3.02 104 3.02  64 3.13
  99  0.865  0.738  0.320-  25 2.67  14 2.72  29 2.84  88 2.85 100 2.86 101 2.88 104 3.00  98 3.00
                            97 3.09  26 3.12  92 3.15  86 3.28
 100  0.828  0.900  0.159-  73 2.60  97 2.81  25 2.82  98 2.83  75 2.84  99 2.86 107 2.88   1 2.89
                            83 2.91 106 2.97  34 3.17  26 3.30
 101  0.699  0.718  0.481-  98 2.82  67 2.88  99 2.88 103 2.89  90 2.91  92 2.92  63 2.95  56 2.96
                            86 2.99 104 3.06 102 3.14  68 3.38
 102  0.680  0.906  0.651-  77 2.77  68 2.84  81 2.85 108 2.88  79 2.91  43 2.92 104 2.93  67 2.95
                            72 3.01 105 3.06 101 3.14 103 3.19
 103  0.859  0.725  0.650-  18 2.72  29 2.77 104 2.82  33 2.83  96 2.88 101 2.89  90 2.93 108 3.03
                            92 3.04 105 3.05  30 3.07 102 3.19
 104  0.862  0.899  0.502-  79 2.77 103 2.82  29 2.83  75 2.83  30 2.85  26 2.89 102 2.93  99 3.00
                            98 3.02 101 3.06  77 3.10   5 3.15
 105  0.677  0.719  0.814-  60 2.67  96 2.78  67 2.79  90 2.88 106 2.92  71 3.00 103 3.05 102 3.06
                            72 3.07  94 3.08 108 3.10 107 3.23
 106  0.669  0.888  0.980-  81 2.70  64 2.80  71 2.83  72 2.83 105 2.92  97 2.92  73 2.94 108 2.96
                           100 2.97  47 2.99 107 3.09  83 3.09
 107  0.858  0.731  1.000-  96 2.75  34 2.76  88 2.88 100 2.88  25 2.88  22 2.90  33 2.92  94 2.98
                           106 3.09  97 3.09 108 3.11 105 3.23
 108  0.842  0.905  0.817-  81 2.70  34 2.86  30 2.87 102 2.88  79 2.89  33 2.91  83 2.94 106 2.96
                           103 3.03 105 3.10 107 3.11   9 3.22
 
  LATTYP: Found a simple orthorhombic cell.
 ALAT       =    12.2390603398
 B/A-ratio  =     1.0136421149
 C/A-ratio  =     1.0286127849
  
  Lattice vectors:
  
 A1 = (  -0.0000000001,  -0.0000000000, -12.2390603398)
 A2 = (   0.0000000000,  12.4060270078,  -0.0000070974)
 A3 = (  12.5892539404,  -0.0001179532,  -0.0000629382)


Analysis of symmetry for initial positions (statically):
=====================================================================
 Subroutine PRICEL returns:
 Original cell was already a primitive cell.
 

 Routine SETGRP: Setting up the symmetry group for a 
 simple orthorhombic supercell.


 Subroutine GETGRP returns: Found  1 space group operations
 (whereof  1 operations were pure point group operations)
 out of a pool of  8 trial point group operations.


The static configuration has the point symmetry C_1 .


Analysis of symmetry for dynamics (positions and initial velocities):
=====================================================================
 Subroutine PRICEL returns:
 Original cell was already a primitive cell.
 

 Routine SETGRP: Setting up the symmetry group for a 
 simple orthorhombic supercell.


 Subroutine GETGRP returns: Found  1 space group operations
 (whereof  1 operations were pure point group operations)
 out of a pool of  8 trial point group operations.


The dynamic configuration has the point symmetry C_1 .


 Subroutine INISYM returns: Found  1 space group operations
 (whereof  1 operations are pure point group operations),
 and found     1 'primitive' translations


----------------------------------------------------------------------------------------

                                     Primitive cell                                     

  volume of cell :    1911.5286

  direct lattice vectors                    reciprocal lattice vectors
    12.589253940 -0.000117953 -0.000062938     0.079432825 -0.000000000 -0.000000000
     0.000000000 12.406027008 -0.000007097     0.000000755  0.080605983 -0.000000000
     0.000000000  0.000000000 12.239060340     0.000000408  0.000000047  0.081705619

  length of vectors
    12.589253941 12.406027008 12.239060340     0.079432825  0.080605983  0.081705619

  position of ions in fractional coordinates (direct lattice)
     0.005512491  0.046674076  0.150456189
     0.029582669  0.220241345  0.321745991
     0.196978120  0.074611752  0.323411233
     0.172258051  0.250179295  0.145149817
     0.030330029  0.087236877  0.504087431
     0.011951662  0.257237370  0.655691232
     0.188451332  0.092015283  0.662228106
     0.199074225  0.252857799  0.474081487
     0.029535242  0.080149762  0.817755357
     0.006835606  0.214453788  0.986765838
     0.182346848  0.077318511  0.996310441
     0.184039480  0.252721676  0.824046153
     0.005049026  0.393834045  0.145229482
     0.008589242  0.573985775  0.310703918
     0.167517357  0.407600043  0.314182387
     0.186142914  0.564522960  0.169932406
     0.022426420  0.394779771  0.481600353
     0.006358750  0.564574281  0.654009561
     0.184483710  0.416462585  0.662399992
     0.183978850  0.575434240  0.486055979
     0.005520588  0.384989865  0.830161505
     0.017054783  0.561310225  0.004010583
     0.180875164  0.408154262  0.990307218
     0.168727916  0.570683411  0.819443722
     0.013097810  0.771921056  0.168240146
     0.022574295  0.930999362  0.336278502
     0.178492612  0.741502298  0.327235273
     0.191223737  0.909400512  0.159253616
     0.016534551  0.733534644  0.491989946
     0.019106485  0.910480556  0.670092520
     0.172792727  0.740521809  0.663893636
     0.172120778  0.926455123  0.502898646
     0.010552210  0.744047253  0.820197733
     0.006897578  0.892306769  0.976499162
     0.167090413  0.732758891  0.995986363
     0.188062942  0.885503192  0.832435218
     0.352071906  0.069022804  0.142323141
     0.351361335  0.227974359  0.317734947
     0.518466155  0.066555339  0.325845887
     0.519377321  0.243814084  0.165088302
     0.350177417  0.070845995  0.490074918
     0.342978641  0.245447884  0.652000527
     0.519412667  0.074863590  0.670824473
     0.522478178  0.234972010  0.489220870
     0.351980071  0.053141109  0.833694092
     0.352453620  0.239364969  0.969179941
     0.522298433  0.077606073  0.985603323
     0.527107302  0.250579802  0.826480337
     0.346357105  0.375992333  0.149495885
     0.348721424  0.570553598  0.323484822
     0.505305923  0.399329894  0.325464302
     0.506022922  0.572296414  0.172113732
     0.340131366  0.410577024  0.483868635
     0.363247084  0.576642722  0.650560041
     0.527327946  0.397501311  0.657749554
     0.524057903  0.559131852  0.484122712
     0.355364495  0.426155156  0.808224963
     0.340085077  0.555793570  0.996142585
     0.524682111  0.412449055  0.002103175
     0.526520601  0.566999148  0.820751174
     0.342799919  0.719495123  0.146839092
     0.355035496  0.896161224  0.308392579
     0.511899763  0.725958139  0.336593157
     0.517810131  0.904601674  0.147082450
     0.336332542  0.746233181  0.488983750
     0.337962743  0.899819201  0.656952161
     0.531697240  0.723058378  0.641742117
     0.508908746  0.909640507  0.499317770
     0.353676020  0.721622540  0.815300981
     0.351665187  0.892897690  0.986775322
     0.512072894  0.724666635  0.990902122
     0.506872198  0.896245432  0.819697137
     0.679915056  0.046097672  0.158121412
     0.679020991  0.222012441  0.323426499
     0.840545295  0.051779322  0.331383088
     0.862530698  0.220238807  0.180929584
     0.677421004  0.064502270  0.491390700
     0.689592915  0.225112207  0.661778161
     0.847427936  0.068067553  0.649666383
     0.870724936  0.226442767  0.495365244
     0.682392854  0.049779708  0.833045353
     0.682787486  0.234319628  0.005093957
     0.839555727  0.066696254  0.992515445
     0.843019007  0.215918642  0.821695118
     0.696148391  0.392764450  0.157445190
     0.693679029  0.539093207  0.317618676
     0.850031496  0.382726508  0.318360215
     0.837923178  0.568213356  0.165711406
     0.691700180  0.389645194  0.492192185
     0.699446735  0.553511888  0.650690327
     0.855919277  0.383192206  0.675210539
     0.853582243  0.542389777  0.484718625
     0.704270276  0.403790591  0.827866204
     0.682014276  0.571892866  0.016819929
     0.866782717  0.403817257  0.990418526
     0.849924035  0.581070370  0.834047555
     0.672230918  0.737817312  0.163927206
     0.684407254  0.894544168  0.336547918
     0.865239793  0.737765028  0.320231335
     0.828017248  0.899700549  0.158687000
     0.699073126  0.718055447  0.481091316
     0.680074161  0.906432253  0.650775892
     0.859430122  0.725001047  0.650109719
     0.862336439  0.899293083  0.502313247
     0.676662540  0.719073310  0.813916267
     0.668802364  0.887672292  0.979903268
     0.858203326  0.730983623  0.999691844
     0.841632623  0.904534783  0.817220580

  ion indices of the primitive-cell ions
   primitive index   ion index
                 1           1
                 2           2
                 3           3
                 4           4
                 5           5
                 6           6
                 7           7
                 8           8
                 9           9
                10          10
                11          11
                12          12
                13          13
                14          14
                15          15
                16          16
                17          17
                18          18
                19          19
                20          20
                21          21
                22          22
                23          23
                24          24
                25          25
                26          26
                27          27
                28          28
                29          29
                30          30
                31          31
                32          32
                33          33
                34          34
                35          35
                36          36
                37          37
                38          38
                39          39
                40          40
                41          41
                42          42
                43          43
                44          44
                45          45
                46          46
                47          47
                48          48
                49          49
                50          50
                51          51
                52          52
                53          53
                54          54
                55          55
                56          56
                57          57
                58          58
                59          59
                60          60
                61          61
                62          62
                63          63
                64          64
                65          65
                66          66
                67          67
                68          68
                69          69
                70          70
                71          71
                72          72
                73          73
                74          74
                75          75
                76          76
                77          77
                78          78
                79          79
                80          80
                81          81
                82          82
                83          83
                84          84
                85          85
                86          86
                87          87
                88          88
                89          89
                90          90
                91          91
                92          92
                93          93
                94          94
                95          95
                96          96
                97          97
                98          98
                99          99
               100         100
               101         101
               102         102
               103         103
               104         104
               105         105
               106         106
               107         107
               108         108

----------------------------------------------------------------------------------------

 
 
 KPOINTS: KPOINTS                                 

Automatic generation of k-mesh.
 Grid dimensions read from file:
 generate k-points for:    4    4    4

 Generating k-lattice:

  Cartesian coordinates                     Fractional coordinates (reciprocal lattice)
     0.019858206 -0.000000000 -0.000000000     0.250000000  0.000000000 -0.000000000
     0.000000189  0.020151496 -0.000000000     0.000000000  0.250000000 -0.000000000
     0.000000102  0.000000012  0.020426405    -0.000000000 -0.000000000  0.250000000

  Length of vectors
     0.019858206  0.020151496  0.020426405

  Shift w.r.t. Gamma in fractional coordinates (k-lattice)
     0.000000000  0.000000000  0.000000000

 
 Subroutine IBZKPT returns following result:
 ===========================================
 
 Found     36 irreducible k-points:
 
 Following reciprocal coordinates:
            Coordinates               Weight
  0.000000  0.000000  0.000000      1.000000
  0.250000 -0.000000 -0.000000      2.000000
  0.500000 -0.000000 -0.000000      1.000000
  0.000000  0.250000 -0.000000      2.000000
  0.250000  0.250000 -0.000000      2.000000
 -0.250000  0.250000  0.000000      2.000000
  0.500000  0.250000 -0.000000      2.000000
  0.000000  0.500000 -0.000000      1.000000
  0.250000  0.500000 -0.000000      2.000000
  0.500000  0.500000 -0.000000      1.000000
  0.000000  0.000000  0.250000      2.000000
  0.250000  0.000000  0.250000      2.000000
 -0.250000 -0.000000  0.250000      2.000000
  0.500000 -0.000000  0.250000      2.000000
  0.000000  0.250000  0.250000      2.000000
 -0.000000 -0.250000  0.250000      2.000000
  0.250000  0.250000  0.250000      2.000000
 -0.250000 -0.250000  0.250000      2.000000
 -0.250000  0.250000 -0.250000      2.000000
  0.250000 -0.250000 -0.250000      2.000000
  0.500000  0.250000  0.250000      2.000000
  0.500000 -0.250000  0.250000      2.000000
  0.000000  0.500000  0.250000      2.000000
  0.250000  0.500000  0.250000      2.000000
 -0.250000  0.500000  0.250000      2.000000
  0.500000  0.500000  0.250000      2.000000
  0.000000  0.000000  0.500000      1.000000
  0.250000 -0.000000  0.500000      2.000000
  0.500000  0.000000  0.500000      1.000000
  0.000000  0.250000  0.500000      2.000000
  0.250000  0.250000  0.500000      2.000000
 -0.250000  0.250000  0.500000      2.000000
  0.500000  0.250000  0.500000      2.000000
  0.000000  0.500000  0.500000      1.000000
  0.250000  0.500000  0.500000      2.000000
  0.500000  0.500000  0.500000      1.000000
 
 Following cartesian coordinates:
            Coordinates               Weight
  0.000000  0.000000  0.000000      1.000000
  0.019858 -0.000000 -0.000000      2.000000
  0.039716 -0.000000 -0.000000      1.000000
  0.000000  0.020151 -0.000000      2.000000
  0.019858  0.020151 -0.000000      2.000000
 -0.019858  0.020151  0.000000      2.000000
  0.039717  0.020151 -0.000000      2.000000
  0.000000  0.040303 -0.000000      1.000000
  0.019859  0.040303 -0.000000      2.000000
  0.039717  0.040303 -0.000000      1.000000
  0.000000  0.000000  0.020426      2.000000
  0.019858  0.000000  0.020426      2.000000
 -0.019858  0.000000  0.020426      2.000000
  0.039717  0.000000  0.020426      2.000000
  0.000000  0.020152  0.020426      2.000000
 -0.000000 -0.020151  0.020426      2.000000
  0.019858  0.020152  0.020426      2.000000
 -0.019858 -0.020151  0.020426      2.000000
 -0.019858  0.020151 -0.020426      2.000000
  0.019858 -0.020152 -0.020426      2.000000
  0.039717  0.020152  0.020426      2.000000
  0.039716 -0.020151  0.020426      2.000000
  0.000000  0.040303  0.020426      2.000000
  0.019859  0.040303  0.020426      2.000000
 -0.019858  0.040303  0.020426      2.000000
  0.039717  0.040303  0.020426      2.000000
  0.000000  0.000000  0.040853      1.000000
  0.019858  0.000000  0.040853      2.000000
  0.039717  0.000000  0.040853      1.000000
  0.000000  0.020152  0.040853      2.000000
  0.019859  0.020152  0.040853      2.000000
 -0.019858  0.020152  0.040853      2.000000
  0.039717  0.020152  0.040853      2.000000
  0.000001  0.040303  0.040853      1.000000
  0.019859  0.040303  0.040853      2.000000
  0.039717  0.040303  0.040853      1.000000
 


--------------------------------------------------------------------------------------------------------




 Dimension of arrays:
   k-points           NKPTS =     36   k-points in BZ     NKDIM =     36   number of bands    NBANDS=    712
   number of dos      NEDOS =    301   number of ions     NIONS =    108
   non local maximal  LDIM  =      6   non local SUM 2l+1 LMDIM =     18
   total plane-waves  NPLWV = 729000
   max r-space proj   IRMAX =   5537   max aug-charges    IRDMAX= 186754
   dimension x,y,z NGX =    90 NGY =   90 NGZ =   90
   dimension x,y,z NGXF=   180 NGYF=  180 NGZF=  180
   support grid    NGXF=   360 NGYF=  360 NGZF=  360
   ions per type =             108
   NGX,Y,Z   is equivalent  to a cutoff of  11.88, 12.06, 12.22 a.u.
   NGXF,Y,Z  is equivalent  to a cutoff of  23.77, 24.12, 24.45 a.u.

 SYSTEM =  Au_FRESH_TRAIN	                         
 POSCAR =  System 1209                             

 Startparameter for this run:
   NWRITE =      2    write-flag & timer
   PREC   = accura    normal or accurate (medium, high low for compatibility)
   ISTART =      0    job   : 0-new  1-cont  2-samecut
   ICHARG =      2    charge: 1-file 2-atom 10-const
   ISPIN  =      1    spin polarized calculation?
   LNONCOLLINEAR =      F non collinear calculations
   LSORBIT =      F    spin-orbit coupling
   INIWAV =      1    electr: 0-lowe 1-rand  2-diag
   LASPH  =      T    aspherical Exc in radial PAW
 Electronic Relaxation 1
   ENCUT  =  450.0 eV  33.07 Ry    5.75 a.u.  21.78 21.46 21.17*2*pi/ulx,y,z
   ENINI  =  450.0     initial cutoff
   ENAUG  =  356.7 eV  augmentation charge cutoff
   NELM   =    400;   NELMIN=  5; NELMDL= -5     # of ELM steps 
   EDIFF  = 0.1E-05   stopping-criterion for ELM
   LREAL  =      T    real-space projection
   NLSPLINE    = F    spline interpolate recip. space projectors
   LCOMPAT=      F    compatible to vasp.4.4
   GGA_COMPAT  = T    GGA compatible to vasp.4.4-vasp.4.6
   LMAXPAW     = -100 max onsite density
   LMAXMIX     =    2 max onsite mixed and CHGCAR
   VOSKOWN=      0    Vosko Wilk Nusair interpolation
   ROPT   =   -0.00025
 Ionic relaxation
   EDIFFG = -.1E-01   stopping-criterion for IOM
   NSW    =      0    number of steps for IOM
   NBLOCK =      1;   KBLOCK =      1    inner block; outer block 
   IBRION =     -1    ionic relax: 0-MD 1-quasi-New 2-CG
   NFREE  =      0    steps in history (QN), initial steepest desc. (CG)
   ISIF   =      3    stress and relaxation
   IWAVPR =     10    prediction:  0-non 1-charg 2-wave 3-comb
   ISYM   =      2    0-nonsym 1-usesym 2-fastsym
   LCORR  =      T    Harris-Foulkes like correction to forces

   POTIM  = 0.5000    time-step for ionic-motion
   TEIN   =    0.0    initial temperature
   TEBEG  =    0.0;   TEEND  =   0.0 temperature during run
   SMASS  =  -3.00    Nose mass-parameter (am)
   estimated Nose-frequenzy (Omega)   =  0.10E-29 period in steps = 0.13E+47 mass=  -0.362E-26a.u.
   SCALEE = 1.0000    scale energy and forces
   NPACO  =    256;   APACO  = 10.0  distance and # of slots for P.C.
   PSTRESS=    0.0 pullay stress

  Mass of Ions in am
   POMASS = 196.97
  Ionic Valenz
   ZVAL   =  11.00
  Atomic Wigner-Seitz radii
   RWIGS  =  -1.00
  virtual crystal weights 
   VCA    =   1.00
   NELECT =    1188.0000    total number of electrons
   NUPDOWN=      -1.0000    fix difference up-down

 DOS related values:
   EMIN   =  10.00;   EMAX   =-10.00  energy-range for DOS
   EFERMI =   0.00;   METHOD = LEGACY      
   ISMEAR =     0;   SIGMA  =   0.05  broadening in eV -4-tet -1-fermi 0-gaus

 Electronic relaxation 2 (details)
   IALGO  =     68    algorithm
   LDIAG  =      T    sub-space diagonalisation (order eigenvalues)
   LSUBROT=      F    optimize rotation matrix (better conditioning)
   TURBO    =      0    0=normal 1=particle mesh
   IRESTART =      0    0=no restart 2=restart with 2 vectors
   NREBOOT  =      0    no. of reboots
   NMIN     =      0    reboot dimension
   EREF     =   0.00    reference energy to select bands
   IMIX   =      4    mixing-type and parameters
     AMIX     =   0.40;   BMIX     =  1.00
     AMIX_MAG =   1.60;   BMIX_MAG =  1.00
     AMIN     =   0.01
     WC   =   100.;   INIMIX=   1;  MIXPRE=   1;  MAXMIX= -45

 Intra band minimization:
   WEIMIN = 0.0000     energy-eigenvalue tresh-hold
   EBREAK =  0.35E-09  absolut break condition
   DEPER  =   0.30     relativ break condition  

   TIME   =   0.40     timestep for ELM

  volume/ion in A,a.u.               =      17.70       119.44
  Fermi-wavevector in a.u.,A,eV,Ry     =   1.397076  2.640091 26.556144  1.951821
  Thomas-Fermi vector in A             =   2.520368
 
 Write flags
   LWAVE        =      F    write WAVECAR
   LDOWNSAMPLE  =      F    k-point downsampling of WAVECAR
   LCHARG       =      F    write CHGCAR
   LVTOT        =      F    write LOCPOT, total local potential
   LVHAR        =      F    write LOCPOT, Hartree potential only
   LELF         =      F    write electronic localiz. function (ELF)
   LORBIT       =      0    0 simple, 1 ext, 2 COOP (PROOUT), +10 PAW based schemes


 Dipole corrections
   LMONO  =      F    monopole corrections only (constant potential shift)
   LDIPOL =      F    correct potential (dipole corrections)
   IDIPOL =      0    1-x, 2-y, 3-z, 4-all directions 
   EPSILON=  1.0000000 bulk dielectric constant

 Exchange correlation treatment:
   GGA     =    --    GGA type
   LEXCH   =     8    internal setting for exchange type
   LIBXC   =     F    Libxc                    
   VOSKOWN =     0    Vosko Wilk Nusair interpolation
   LHFCALC =     F    Hartree Fock is set to
   LHFONE  =     F    Hartree Fock one center treatment
   AEXX    =    0.0000 exact exchange contribution

 Linear response parameters
   LEPSILON=     F    determine dielectric tensor
   LRPA    =     F    only Hartree local field effects (RPA)
   LNABLA  =     F    use nabla operator in PAW spheres
   LVEL    =     F    velocity operator in full k-point grid
   CSHIFT  =0.1000    complex shift for real part using Kramers Kronig
   OMEGAMAX=  -1.0    maximum frequency
   DEG_THRESHOLD= 0.2000000E-02 threshold for treating states as degnerate
   RTIME   =   -0.100 relaxation time in fs
  (WPLASMAI=    0.000 imaginary part of plasma frequency in eV, 0.658/RTIME)
   DFIELD  = 0.0000000 0.0000000 0.0000000 field for delta impulse in time
 
  Optional k-point grid parameters
   LKPOINTS_OPT  =     F    use optional k-point grid
   KPOINTS_OPT_MODE=     1    mode for optional k-point grid
 
 Orbital magnetization related:
   ORBITALMAG=     F  switch on orbital magnetization
   LCHIMAG   =     F  perturbation theory with respect to B field
   DQ        =  0.001000  dq finite difference perturbation B field
   LLRAUG    =     F  two centre corrections for induced B field
   LBONE     =     F  B-component reconstruction in AE one-centre
   LVGVCALC  =     T  calculate vGv susceptibility
   LVGVAPPL  =     F  apply vGv susceptibility instead of pGv for G=0

 Random number generation:
   RANDOM_GENERATOR = DEFAULT
   PCG_SEED         = not used


--------------------------------------------------------------------------------------------------------


 Static calculation
 charge density and potential will be updated during run
 non-spin polarized calculation
 RMM-DIIS sequential band-by-band and
  variant of blocked Davidson during initial phase
 perform sub-space diagonalisation
    before iterative eigenvector-optimisation
 modified Broyden-mixing scheme, WC =      100.0
 initial mixing is a Kerker type mixing with AMIX =  0.4000 and BMIX =      1.0000
 Hartree-type preconditioning will be used
 using additional bands          118
 real space projection scheme for non local part
 use partial core corrections
 calculate Harris-corrections to forces 
   (improved forces if not selfconsistent)
 use gradient corrections 
 use of overlap-Matrix (Vanderbilt PP)
 Gauss-broadening in eV      SIGMA  =   0.05


--------------------------------------------------------------------------------------------------------


  energy-cutoff  :      450.00
  volume of cell :     1911.53
      direct lattice vectors                 reciprocal lattice vectors
    12.589253940 -0.000117953 -0.000062938     0.079432825 -0.000000000 -0.000000000
     0.000000000 12.406027008 -0.000007097     0.000000755  0.080605983 -0.000000000
     0.000000000  0.000000000 12.239060340     0.000000408  0.000000047  0.081705619

  length of vectors
    12.589253941 12.406027008 12.239060340     0.079432825  0.080605983  0.081705619


 
 k-points in units of 2pi/SCALE and weight: KPOINTS                                 
   0.00000000  0.00000000  0.00000000       0.016
   0.01985821 -0.00000000 -0.00000000       0.031
   0.03971641 -0.00000000 -0.00000000       0.016
   0.00000019  0.02015150 -0.00000000       0.031
   0.01985839  0.02015150 -0.00000000       0.031
  -0.01985802  0.02015150  0.00000000       0.031
   0.03971660  0.02015150 -0.00000000       0.031
   0.00000038  0.04030299 -0.00000000       0.016
   0.01985858  0.04030299 -0.00000000       0.031
   0.03971679  0.04030299 -0.00000000       0.016
   0.00000010  0.00000001  0.02042640       0.031
   0.01985831  0.00000001  0.02042640       0.031
  -0.01985810  0.00000001  0.02042640       0.031
   0.03971651  0.00000001  0.02042640       0.031
   0.00000029  0.02015151  0.02042640       0.031
  -0.00000009 -0.02015148  0.02042640       0.031
   0.01985850  0.02015151  0.02042640       0.031
  -0.01985829 -0.02015148  0.02042640       0.031
  -0.01985812  0.02015148 -0.02042640       0.031
   0.01985792 -0.02015151 -0.02042640       0.031
   0.03971670  0.02015151  0.02042640       0.031
   0.03971633 -0.02015148  0.02042640       0.031
   0.00000048  0.04030300  0.02042640       0.031
   0.01985869  0.04030300  0.02042640       0.031
  -0.01985773  0.04030300  0.02042640       0.031
   0.03971689  0.04030300  0.02042640       0.031
   0.00000020  0.00000002  0.04085281       0.016
   0.01985841  0.00000002  0.04085281       0.031
   0.03971662  0.00000002  0.04085281       0.016
   0.00000039  0.02015152  0.04085281       0.031
   0.01985860  0.02015152  0.04085281       0.031
  -0.01985781  0.02015152  0.04085281       0.031
   0.03971681  0.02015152  0.04085281       0.031
   0.00000058  0.04030301  0.04085281       0.016
   0.01985879  0.04030301  0.04085281       0.031
   0.03971699  0.04030301  0.04085281       0.016
 
 k-points in reciprocal lattice and weights: KPOINTS                                 
   0.00000000  0.00000000  0.00000000       0.016
   0.25000000 -0.00000000 -0.00000000       0.031
   0.50000000 -0.00000000 -0.00000000       0.016
   0.00000000  0.25000000 -0.00000000       0.031
   0.25000000  0.25000000 -0.00000000       0.031
  -0.25000000  0.25000000  0.00000000       0.031
   0.50000000  0.25000000 -0.00000000       0.031
   0.00000000  0.50000000 -0.00000000       0.016
   0.25000000  0.50000000 -0.00000000       0.031
   0.50000000  0.50000000 -0.00000000       0.016
   0.00000000  0.00000000  0.25000000       0.031
   0.25000000  0.00000000  0.25000000       0.031
  -0.25000000 -0.00000000  0.25000000       0.031
   0.50000000 -0.00000000  0.25000000       0.031
   0.00000000  0.25000000  0.25000000       0.031
  -0.00000000 -0.25000000  0.25000000       0.031
   0.25000000  0.25000000  0.25000000       0.031
  -0.25000000 -0.25000000  0.25000000       0.031
  -0.25000000  0.25000000 -0.25000000       0.031
   0.25000000 -0.25000000 -0.25000000       0.031
   0.50000000  0.25000000  0.25000000       0.031
   0.50000000 -0.25000000  0.25000000       0.031
   0.00000000  0.50000000  0.25000000       0.031
   0.25000000  0.50000000  0.25000000       0.031
  -0.25000000  0.50000000  0.25000000       0.031
   0.50000000  0.50000000  0.25000000       0.031
   0.00000000  0.00000000  0.50000000       0.016
   0.25000000 -0.00000000  0.50000000       0.031
   0.50000000  0.00000000  0.50000000       0.016
   0.00000000  0.25000000  0.50000000       0.031
   0.25000000  0.25000000  0.50000000       0.031
  -0.25000000  0.25000000  0.50000000       0.031
   0.50000000  0.25000000  0.50000000       0.031
   0.00000000  0.50000000  0.50000000       0.016
   0.25000000  0.50000000  0.50000000       0.031
   0.50000000  0.50000000  0.50000000       0.016
 
 position of ions in fractional coordinates (direct lattice) 
   0.00551249  0.04667408  0.15045619
   0.02958267  0.22024135  0.32174599
   0.19697812  0.07461175  0.32341123
   0.17225805  0.25017930  0.14514982
   0.03033003  0.08723688  0.50408743
   0.01195166  0.25723737  0.65569123
   0.18845133  0.09201528  0.66222811
   0.19907422  0.25285780  0.47408149
   0.02953524  0.08014976  0.81775536
   0.00683561  0.21445379  0.98676584
   0.18234685  0.07731851  0.99631044
   0.18403948  0.25272168  0.82404615
   0.00504903  0.39383404  0.14522948
   0.00858924  0.57398577  0.31070392
   0.16751736  0.40760004  0.31418239
   0.18614291  0.56452296  0.16993241
   0.02242642  0.39477977  0.48160035
   0.00635875  0.56457428  0.65400956
   0.18448371  0.41646259  0.66239999
   0.18397885  0.57543424  0.48605598
   0.00552059  0.38498986  0.83016150
   0.01705478  0.56131023  0.00401058
   0.18087516  0.40815426  0.99030722
   0.16872792  0.57068341  0.81944372
   0.01309781  0.77192106  0.16824015
   0.02257429  0.93099936  0.33627850
   0.17849261  0.74150230  0.32723527
   0.19122374  0.90940051  0.15925362
   0.01653455  0.73353464  0.49198995
   0.01910648  0.91048056  0.67009252
   0.17279273  0.74052181  0.66389364
   0.17212078  0.92645512  0.50289865
   0.01055221  0.74404725  0.82019773
   0.00689758  0.89230677  0.97649916
   0.16709041  0.73275889  0.99598636
   0.18806294  0.88550319  0.83243522
   0.35207191  0.06902280  0.14232314
   0.35136134  0.22797436  0.31773495
   0.51846615  0.06655534  0.32584589
   0.51937732  0.24381408  0.16508830
   0.35017742  0.07084600  0.49007492
   0.34297864  0.24544788  0.65200053
   0.51941267  0.07486359  0.67082447
   0.52247818  0.23497201  0.48922087
   0.35198007  0.05314111  0.83369409
   0.35245362  0.23936497  0.96917994
   0.52229843  0.07760607  0.98560332
   0.52710730  0.25057980  0.82648034
   0.34635710  0.37599233  0.14949589
   0.34872142  0.57055360  0.32348482
   0.50530592  0.39932989  0.32546430
   0.50602292  0.57229641  0.17211373
   0.34013137  0.41057702  0.48386863
   0.36324708  0.57664272  0.65056004
   0.52732795  0.39750131  0.65774955
   0.52405790  0.55913185  0.48412271
   0.35536450  0.42615516  0.80822496
   0.34008508  0.55579357  0.99614259
   0.52468211  0.41244905  0.00210317
   0.52652060  0.56699915  0.82075117
   0.34279992  0.71949512  0.14683909
   0.35503550  0.89616122  0.30839258
   0.51189976  0.72595814  0.33659316
   0.51781013  0.90460167  0.14708245
   0.33633254  0.74623318  0.48898375
   0.33796274  0.89981920  0.65695216
   0.53169724  0.72305838  0.64174212
   0.50890875  0.90964051  0.49931777
   0.35367602  0.72162254  0.81530098
   0.35166519  0.89289769  0.98677532
   0.51207289  0.72466663  0.99090212
   0.50687220  0.89624543  0.81969714
   0.67991506  0.04609767  0.15812141
   0.67902099  0.22201244  0.32342650
   0.84054530  0.05177932  0.33138309
   0.86253070  0.22023881  0.18092958
   0.67742100  0.06450227  0.49139070
   0.68959291  0.22511221  0.66177816
   0.84742794  0.06806755  0.64966638
   0.87072494  0.22644277  0.49536524
   0.68239285  0.04977971  0.83304535
   0.68278749  0.23431963  0.00509396
   0.83955573  0.06669625  0.99251544
   0.84301901  0.21591864  0.82169512
   0.69614839  0.39276445  0.15744519
   0.69367903  0.53909321  0.31761868
   0.85003150  0.38272651  0.31836022
   0.83792318  0.56821336  0.16571141
   0.69170018  0.38964519  0.49219219
   0.69944673  0.55351189  0.65069033
   0.85591928  0.38319221  0.67521054
   0.85358224  0.54238978  0.48471862
   0.70427028  0.40379059  0.82786620
   0.68201428  0.57189287  0.01681993
   0.86678272  0.40381726  0.99041853
   0.84992404  0.58107037  0.83404755
   0.67223092  0.73781731  0.16392721
   0.68440725  0.89454417  0.33654792
   0.86523979  0.73776503  0.32023134
   0.82801725  0.89970055  0.15868700
   0.69907313  0.71805545  0.48109132
   0.68007416  0.90643225  0.65077589
   0.85943012  0.72500105  0.65010972
   0.86233644  0.89929308  0.50231325
   0.67666254  0.71907331  0.81391627
   0.66880236  0.88767229  0.97990327
   0.85820333  0.73098362  0.99969184
   0.84163262  0.90453478  0.81722058
 
 position of ions in cartesian coordinates  (Angst):
   0.06939815  0.57903920  1.84144169
   0.37242373  2.73231659  3.93786518
   2.47980757  0.92561217  3.95823667
   2.16860035  3.10371078  1.77648475
   0.38183244  1.08225948  6.16955395
   0.15046251  3.19129235  8.02504198
   2.37246167  1.14152186  8.10503724
   2.50619597  3.13693720  5.80229760
   0.37182666  0.99433663 10.00855472
   0.08605517  2.66051868 12.07708468
   2.29561078  0.95919403 12.19389158
   2.31691975  3.13525023 10.08553721
   0.06356348  4.88591520  1.77746928
   0.10813215  7.12088201  3.80271938
   2.10891854  5.05667738  3.84528376
   2.34340041  7.00346513  2.07979725
   0.28233189  4.89764586  5.89433157
   0.08005192  7.00412303  8.00445807
   2.32251228  5.16662432  8.10713891
   2.31615647  7.13883102  5.94885279
   0.06950008  4.77619401 10.16039367
   0.21470700  6.96362780  0.04908071
   2.27708337  5.06355146 12.12041552
   2.12415858  7.07989391 10.02920649
   0.16489166  9.57647193  2.05909499
   0.28419353 11.55000056  4.11572485
   2.24708882  9.19907649  4.00503576
   2.40736418 11.28202476  1.94909612
   0.20815766  9.10024865  6.02148839
   0.24053639 11.29544411  8.20129512
   2.17533152  9.18691318  8.12541814
   2.16687218 11.49360697  6.15498946
   0.13284445  9.23066907 10.03844360
   0.08683536 11.06998106 11.95142540
   2.10354364  9.09060688 12.18992148
   2.36757214 10.98555433 10.18820675
   4.43232263  0.85625724  1.74187887
   4.42337708  2.82821460  3.88875346
   6.52710208  0.82562618  3.98801436
   6.53857299  3.02470285  2.02049128
   4.40847243  0.87887603  5.99803395
   4.31784521  3.04499263  7.97985046
   6.53901796  0.92869845  8.21022799
   6.57761047  2.91500747  5.98756919
   4.43116650  0.65922852 10.20360976
   4.43712812  2.96952670 11.86182789
   6.57534760  0.96272143 12.06282512
   6.63588767  3.10863761 10.11530776
   4.36037755  4.66453018  1.82966470
   4.39014256  7.07826222  3.95912426
   6.36142458  4.95403784  3.98334259
   6.37045107  7.09986509  2.10647444
   4.28200013  5.09358953  5.92207310
   4.57300979  7.15380234  7.96221664
   6.63866542  4.93134980  8.05020047
   6.59749802  6.93654304  5.92517013
   4.47377387  5.28685046  9.89188870
   4.28141739  6.89514992 12.19182386
   6.60535634  5.11679222  0.02570494
   6.62850155  7.03414464 10.04518598
   4.31559524  8.92603549  1.79714583
   4.46963202 11.11775846  3.77440668
   6.44443611  9.00619590  4.11954658
   6.51884323 11.22245173  1.80011198
   4.23417578  9.25774932  5.98467515
   4.25469879 11.16314145  8.04044949
   6.69367157  8.97021905  7.85428190
   6.40678144 11.28496467  6.11114183
   4.45251723  8.95242701  9.97849052
   4.42720234 11.07727138 12.07717423
   6.44661570  8.99017344 12.12767348
   6.38114281 11.11878525 10.03228446
   8.55962330  0.57180877  1.93521439
   8.54836769  2.75421225  3.95839212
  10.58183817  0.64227652  4.05576435
  10.85861799  2.73218685  2.21435225
   8.52822504  0.80013700  6.01411733
   8.68146032  2.79266678  8.09949785
  10.66848548  0.84434795  7.95125225
  10.96177733  2.80915238  6.06274871
   8.59081693  0.61748792 10.19564904
   8.59578505  2.90689509  0.06230061
  10.56938025  0.82733650 12.14740310
  10.61298036  2.67859306 10.05672154
   8.76398888  4.87256426  1.92693458
   8.73290145  6.68792306  3.88730665
  10.70126236  4.74801513  3.89637367
  10.54882767  7.04917141  2.02809512
   8.70798922  4.83386721  6.02392356
   8.80551256  6.86680093  7.96379022
  10.77538513  4.75379190  8.26388593
  10.74596361  6.72880154  5.93244292
   8.86623735  5.00935391 10.13225723
   8.58605092  7.09483789  0.20581314
  10.91214774  5.00966556 12.12173468
  10.69990951  7.20867445 10.20790073
   8.46288574  9.15330221  2.00626743
   8.61617672 11.09765838  4.11898085
  10.89272348  9.15263081  3.91927094
  10.42411940 11.16161164  1.94212126
   8.80080911  8.90813282  5.88805655
   8.56162631 11.24514280  7.96483617
  10.81958405  8.99428119  7.95667284
  10.85617242 11.15655256  6.14778149
   8.51867655  8.92076308  9.96152262
   8.41972280 11.01240754 11.99304684
  10.80413960  9.06850134 12.23522960
  10.59552682 11.22158367 10.00195260
 


--------------------------------------------------------------------------------------------------------


 k-point   1 :   0.0000 0.0000 0.0000  plane waves:   41423
 k-point   2 :   0.2500-0.0000-0.0000  plane waves:   41418
 k-point   3 :   0.5000-0.0000-0.0000  plane waves:   41452
 k-point   4 :   0.0000 0.2500-0.0000  plane waves:   41459
 k-point   5 :   0.2500 0.2500-0.0000  plane waves:   41437
 k-point   6 :  -0.2500 0.2500 0.0000  plane waves:   41439
 k-point   7 :   0.5000 0.2500-0.0000  plane waves:   41462
 k-point   8 :   0.0000 0.5000-0.0000  plane waves:   41394
 k-point   9 :   0.2500 0.5000-0.0000  plane waves:   41400
 k-point  10 :   0.5000 0.5000-0.0000  plane waves:   41424
 k-point  11 :   0.0000 0.0000 0.2500  plane waves:   41468
 k-point  12 :   0.2500 0.0000 0.2500  plane waves:   41449
 k-point  13 :  -0.2500-0.0000 0.2500  plane waves:   41448
 k-point  14 :   0.5000-0.0000 0.2500  plane waves:   41438
 k-point  15 :   0.0000 0.2500 0.2500  plane waves:   41432
 k-point  16 :  -0.0000-0.2500 0.2500  plane waves:   41432
 k-point  17 :   0.2500 0.2500 0.2500  plane waves:   41430
 k-point  18 :  -0.2500-0.2500 0.2500  plane waves:   41430
 k-point  19 :  -0.2500 0.2500-0.2500  plane waves:   41431
 k-point  20 :   0.2500-0.2500-0.2500  plane waves:   41431
 k-point  21 :   0.5000 0.2500 0.2500  plane waves:   41437
 k-point  22 :   0.5000-0.2500 0.2500  plane waves:   41437
 k-point  23 :   0.0000 0.5000 0.2500  plane waves:   41412
 k-point  24 :   0.2500 0.5000 0.2500  plane waves:   41420
 k-point  25 :  -0.2500 0.5000 0.2500  plane waves:   41420
 k-point  26 :   0.5000 0.5000 0.2500  plane waves:   41404
 k-point  27 :   0.0000 0.0000 0.5000  plane waves:   41522
 k-point  28 :   0.2500-0.0000 0.5000  plane waves:   41468
 k-point  29 :   0.5000 0.0000 0.5000  plane waves:   41482
 k-point  30 :   0.0000 0.2500 0.5000  plane waves:   41454
 k-point  31 :   0.2500 0.2500 0.5000  plane waves:   41466
 k-point  32 :  -0.2500 0.2500 0.5000  plane waves:   41466
 k-point  33 :   0.5000 0.2500 0.5000  plane waves:   41424
 k-point  34 :   0.0000 0.5000 0.5000  plane waves:   41340
 k-point  35 :   0.2500 0.5000 0.5000  plane waves:   41428
 k-point  36 :   0.5000 0.5000 0.5000  plane waves:   41384

 maximum and minimum number of plane-waves per node :      2627     2545

 maximum number of plane-waves:     41522
 maximum index in each direction: 
   IXMAX=   22   IYMAX=   21   IZMAX=   21
   IXMIN=  -22   IYMIN=  -21   IZMIN=  -21


 real space projection operators:
  total allocation   :      80890.03 KBytes
  max/ min on nodes  :       5487.75       4328.58


 parallel 3D FFT for wavefunctions:
    minimum data exchange during FFTs selected (reduces bandwidth)
 parallel 3D FFT for charge:
    minimum data exchange during FFTs selected (reduces bandwidth)


 total amount of memory used by VASP MPI-rank0   650531. kBytes
=======================================================================

   base      :      30000. kBytes
   nonlr-proj:      16922. kBytes
   fftplans  :      29476. kBytes
   grid      :      11352. kBytes
   one-center:        108. kBytes
   wavefun   :     562673. kBytes
 
     INWAV:  cpu time      0.0000: real time      0.0002
 Broyden mixing: mesh for mixing (old mesh)
   NGX = 43   NGY = 43   NGZ = 43
  (NGX  =180   NGY  =180   NGZ  =180)
  gives a total of  79507 points

 initial charge density was supplied:
 charge density of overlapping atoms calculated
 number of electron    1188.0000000 magnetization 
 keeping initial charge density in first step


--------------------------------------------------------------------------------------------------------


 Maximum index for non-local projection operator          390
 Maximum index for augmentation-charges         8837 (set IRDMAX)


--------------------------------------------------------------------------------------------------------


 First call to EWALD:  gamma=   0.143
 Maximum number of real-space cells 3x 3x 3
 Maximum number of reciprocal cells 3x 3x 3

    FEWALD:  cpu time      0.0035: real time      0.0035


--------------------------------------- Ionic step        1  -------------------------------------------




--------------------------------------- Iteration      1(   1)  ---------------------------------------


    POTLOK:  cpu time      0.2000: real time      0.2562
    SETDIJ:  cpu time      1.1945: real time      1.1956
     EDDAV:  cpu time    399.5542: real time    400.0126
       DOS:  cpu time      0.0285: real time      0.0286
    --------------------------------------------
      LOOP:  cpu time    400.9773: real time    401.4930

 eigenvalue-minimisations  : 51296
 total energy-change (2. order) : 0.7905663E+04  (-0.5596220E+05)
 number of electron    1188.0000000 magnetization 
 augmentation part     1188.0000000 magnetization 

 Free energy of the ion-electron system (eV)
  ---------------------------------------------------
  alpha Z        PSCENC =      7107.49574101
  Ewald energy   TEWEN  =   -103846.10654583
  -Hartree energ DENC   =    -14306.12012445
  -exchange      EXHF   =         0.00000000
  -V(xc)+E(xc)   XCENC  =      1681.15618854
  PAW double counting   =     94402.53036210   -91909.09456100
  entropy T*S    EENTRO =        -0.03991401
  eigenvalues    EBANDS =     14759.09694881
  atomic energy  EATOM  =    100016.74509547
  Solvation  Ediel_sol  =         0.00000000
  ---------------------------------------------------
  free energy    TOTEN  =      7905.66319064 eV

  energy without entropy =     7905.70310465  energy(sigma->0) =     7905.68314765


--------------------------------------------------------------------------------------------------------




--------------------------------------- Iteration      1(   2)  ---------------------------------------


     EDDAV:  cpu time    419.3465: real time    419.6428
       DOS:  cpu time      0.0328: real time      0.0328
    --------------------------------------------
      LOOP:  cpu time    419.3792: real time    419.6756

 eigenvalue-minimisations  : 54576
 total energy-change (2. order) :-0.7933425E+04  (-0.7543127E+04)
 number of electron    1188.0000000 magnetization 
 augmentation part     1188.0000000 magnetization 

 Free energy of the ion-electron system (eV)
  ---------------------------------------------------
  alpha Z        PSCENC =      7107.49574101
  Ewald energy   TEWEN  =   -103846.10654583
  -Hartree energ DENC   =    -14306.12012445
  -exchange      EXHF   =         0.00000000
  -V(xc)+E(xc)   XCENC  =      1681.15618854
  PAW double counting   =     94402.53036210   -91909.09456100
  entropy T*S    EENTRO =        -0.03405851
  eigenvalues    EBANDS =      6825.66650037
  atomic energy  EATOM  =    100016.74509547
  Solvation  Ediel_sol  =         0.00000000
  ---------------------------------------------------
  free energy    TOTEN  =       -27.76140229 eV

  energy without entropy =      -27.72734378  energy(sigma->0) =      -27.74437303


--------------------------------------------------------------------------------------------------------




--------------------------------------- Iteration      1(   3)  ---------------------------------------


     EDDAV:  cpu time    422.6375: real time    422.9131
       DOS:  cpu time      0.0351: real time      0.0351
    --------------------------------------------
      LOOP:  cpu time    422.6727: real time    422.9482

 eigenvalue-minimisations  : 54856
 total energy-change (2. order) :-0.3353801E+03  (-0.3231561E+03)
 number of electron    1188.0000000 magnetization 
 augmentation part     1188.0000000 magnetization 

 Free energy of the ion-electron system (eV)
  ---------------------------------------------------
  alpha Z        PSCENC =      7107.49574101
  Ewald energy   TEWEN  =   -103846.10654583
  -Hartree energ DENC   =    -14306.12012445
  -exchange      EXHF   =         0.00000000
  -V(xc)+E(xc)   XCENC  =      1681.15618854
  PAW double counting   =     94402.53036210   -91909.09456100
  entropy T*S    EENTRO =        -0.03561224
  eigenvalues    EBANDS =      6490.28790899
  atomic energy  EATOM  =    100016.74509547
  Solvation  Ediel_sol  =         0.00000000
  ---------------------------------------------------
  free energy    TOTEN  =      -363.14154740 eV

  energy without entropy =     -363.10593516  energy(sigma->0) =     -363.12374128


--------------------------------------------------------------------------------------------------------




--------------------------------------- Iteration      1(   4)  ---------------------------------------


     EDDAV:  cpu time    418.6360: real time    418.8615
       DOS:  cpu time      0.0345: real time      0.0345
    --------------------------------------------
      LOOP:  cpu time    418.6704: real time    418.8959

 eigenvalue-minimisations  : 54416
 total energy-change (2. order) :-0.5511599E+01  (-0.5470007E+01)
 number of electron    1188.0000000 magnetization 
 augmentation part     1188.0000000 magnetization 

 Free energy of the ion-electron system (eV)
  ---------------------------------------------------
  alpha Z        PSCENC =      7107.49574101
  Ewald energy   TEWEN  =   -103846.10654583
  -Hartree energ DENC   =    -14306.12012445
  -exchange      EXHF   =         0.00000000
  -V(xc)+E(xc)   XCENC  =      1681.15618854
  PAW double counting   =     94402.53036210   -91909.09456100
  entropy T*S    EENTRO =        -0.03581878
  eigenvalues    EBANDS =      6484.77651674
  atomic energy  EATOM  =    100016.74509547
  Solvation  Ediel_sol  =         0.00000000
  ---------------------------------------------------
  free energy    TOTEN  =      -368.65314620 eV

  energy without entropy =     -368.61732742  energy(sigma->0) =     -368.63523681


--------------------------------------------------------------------------------------------------------




--------------------------------------- Iteration      1(   5)  ---------------------------------------


     EDDAV:  cpu time    418.1271: real time    418.3825
       DOS:  cpu time      0.0341: real time      0.0341
    CHARGE:  cpu time      9.2632: real time      9.2637
    MIXING:  cpu time      0.0099: real time      0.0099
    --------------------------------------------
      LOOP:  cpu time    427.4344: real time    427.6902

 eigenvalue-minimisations  : 54544
 total energy-change (2. order) :-0.7901095E-01  (-0.7886958E-01)
 number of electron    1188.0000022 magnetization 
 augmentation part      416.7403537 magnetization 

 Broyden mixing:
  rms(total) = 0.91464E+01    rms(broyden)= 0.91463E+01
  rms(prec ) = 0.94458E+01
  weight for this iteration     100.00

 Free energy of the ion-electron system (eV)
  ---------------------------------------------------
  alpha Z        PSCENC =      7107.49574101
  Ewald energy   TEWEN  =   -103846.10654583
  -Hartree energ DENC   =    -14306.12012445
  -exchange      EXHF   =         0.00000000
  -V(xc)+E(xc)   XCENC  =      1681.15618854
  PAW double counting   =     94402.53036210   -91909.09456100
  entropy T*S    EENTRO =        -0.03583374
  eigenvalues    EBANDS =      6484.69752075
  atomic energy  EATOM  =    100016.74509547
  Solvation  Ediel_sol  =         0.00000000
  ---------------------------------------------------
  free energy    TOTEN  =      -368.73215714 eV

  energy without entropy =     -368.69632340  energy(sigma->0) =     -368.71424027


--------------------------------------------------------------------------------------------------------




--------------------------------------- Iteration      1(   6)  ---------------------------------------


    POTLOK:  cpu time      0.1878: real time      0.2031
    SETDIJ:  cpu time      1.1889: real time      1.1890
    EDDIAG:  cpu time     40.9383: real time     40.9489
  RMM-DIIS:  cpu time    213.7092: real time    213.8441
    ORTHCH:  cpu time     11.7989: real time     11.8000
       DOS:  cpu time      0.0312: real time      0.0312
    CHARGE:  cpu time      9.1525: real time      9.1581
    MIXING:  cpu time      0.0089: real time      0.0089
    --------------------------------------------
      LOOP:  cpu time    277.0156: real time    277.1832

 eigenvalue-minimisations  : 51274
 total energy-change (2. order) : 0.2681030E+02  (-0.6617336E+01)
 number of electron    1188.0000023 magnetization 
 augmentation part      429.7584271 magnetization 

 Broyden mixing:
  rms(total) = 0.58642E+01    rms(broyden)= 0.58642E+01
  rms(prec ) = 0.59010E+01
  weight for this iteration     100.00

 eigenvalues of (default mixing * dielectric matrix)
  average eigenvalue GAMMA=   2.2029
  2.2029

 Free energy of the ion-electron system (eV)
  ---------------------------------------------------
  alpha Z        PSCENC =      7107.49574101
  Ewald energy   TEWEN  =   -103846.10654583
  -Hartree energ DENC   =    -13462.01126284
  -exchange      EXHF   =         0.00000000
  -V(xc)+E(xc)   XCENC  =      1644.22889088
  PAW double counting   =    101446.28543845   -99087.99881424
  entropy T*S    EENTRO =        -0.04477574
  eigenvalues    EBANDS =      5839.48437315
  atomic energy  EATOM  =    100016.74509547
  Solvation  Ediel_sol  =         0.00000000
  ---------------------------------------------------
  free energy    TOTEN  =      -341.92185968 eV

  energy without entropy =     -341.87708394  energy(sigma->0) =     -341.89947181


--------------------------------------------------------------------------------------------------------




--------------------------------------- Iteration      1(   7)  ---------------------------------------


    POTLOK:  cpu time      0.1879: real time      0.2036
    SETDIJ:  cpu time      1.1972: real time      1.1972
    EDDIAG:  cpu time     41.4458: real time     41.4516
  RMM-DIIS:  cpu time    217.4141: real time    217.5173
    ORTHCH:  cpu time     11.7992: real time     11.8028
       DOS:  cpu time      0.0345: real time      0.0345
    CHARGE:  cpu time      9.1728: real time      9.1734
    MIXING:  cpu time      0.0095: real time      0.0095
    --------------------------------------------
      LOOP:  cpu time    281.2609: real time    281.3898

 eigenvalue-minimisations  : 52314
 total energy-change (2. order) : 0.1237818E+01  (-0.2020074E+01)
 number of electron    1188.0000023 magnetization 
 augmentation part      436.4756886 magnetization 

 Broyden mixing:
  rms(total) = 0.18817E+01    rms(broyden)= 0.18817E+01
  rms(prec ) = 0.19037E+01
  weight for this iteration     100.00

 eigenvalues of (default mixing * dielectric matrix)
  average eigenvalue GAMMA=   2.0583
  1.3247  2.7920

 Free energy of the ion-electron system (eV)
  ---------------------------------------------------
  alpha Z        PSCENC =      7107.49574101
  Ewald energy   TEWEN  =   -103846.10654583
  -Hartree energ DENC   =    -13005.39886432
  -exchange      EXHF   =         0.00000000
  -V(xc)+E(xc)   XCENC  =      1623.92479312
  PAW double counting   =    111239.72717908  -109013.93221611
  entropy T*S    EENTRO =        -0.03945786
  eigenvalues    EBANDS =      5536.90023397
  atomic energy  EATOM  =    100016.74509547
  Solvation  Ediel_sol  =         0.00000000
  ---------------------------------------------------
  free energy    TOTEN  =      -340.68404146 eV

  energy without entropy =     -340.64458360  energy(sigma->0) =     -340.66431253


--------------------------------------------------------------------------------------------------------




--------------------------------------- Iteration      1(   8)  ---------------------------------------


    POTLOK:  cpu time      0.1861: real time      0.2013
    SETDIJ:  cpu time      1.2017: real time      1.2018
    EDDIAG:  cpu time     41.5114: real time     41.5421
  RMM-DIIS:  cpu time    218.6265: real time    218.6926
    ORTHCH:  cpu time     11.9165: real time     11.9452
       DOS:  cpu time      0.0345: real time      0.0345
    CHARGE:  cpu time      9.1800: real time      9.1807
    MIXING:  cpu time      0.0098: real time      0.0098
    --------------------------------------------
      LOOP:  cpu time    282.6666: real time    282.8079

 eigenvalue-minimisations  : 52451
 total energy-change (2. order) : 0.5417417E+00  (-0.4435406E+00)
 number of electron    1188.0000023 magnetization 
 augmentation part      433.6321836 magnetization 

 Broyden mixing:
  rms(total) = 0.49226E+00    rms(broyden)= 0.49226E+00
  rms(prec ) = 0.49681E+00
  weight for this iteration     100.00

 eigenvalues of (default mixing * dielectric matrix)
  average eigenvalue GAMMA=   1.5438
  2.5343  1.2913  0.8059

 Free energy of the ion-electron system (eV)
  ---------------------------------------------------
  alpha Z        PSCENC =      7107.49574101
  Ewald energy   TEWEN  =   -103846.10654583
  -Hartree energ DENC   =    -13118.85049984
  -exchange      EXHF   =         0.00000000
  -V(xc)+E(xc)   XCENC  =      1628.40809338
  PAW double counting   =    114354.30768455  -112153.85726565
  entropy T*S    EENTRO =        -0.04416819
  eigenvalues    EBANDS =      5671.75956534
  atomic energy  EATOM  =    100016.74509547
[...]
   -.329E+02 0.158E+01 0.266E+02   0.329E+02 -.183E+01 -.274E+02   0.123E+00 0.213E+00 0.903E+00   0.700E-04 -.163E-03 -.585E-03
   0.379E+02 -.185E+02 0.358E+00   -.378E+02 0.195E+02 -.421E+00   -.409E+00 -.828E+00 0.347E+00   0.142E-04 0.840E-03 0.209E-03
   0.451E+02 0.553E+01 -.114E+01   -.452E+02 -.528E+01 0.104E+01   -.523E-01 -.468E+00 0.207E+00   -.113E-04 0.188E-03 -.946E-05
   -.254E+02 -.484E+02 0.478E+01   0.256E+02 0.473E+02 -.517E+01   0.708E-01 0.227E+01 0.519E+00   0.778E-04 -.527E-03 -.165E-03
   0.856E+01 -.139E+02 -.229E+02   -.830E+01 0.140E+02 0.229E+02   -.633E+00 -.201E+00 0.476E+00   -.223E-04 -.161E-03 0.740E-05
   -.146E+02 -.690E+01 -.874E+01   0.139E+02 0.699E+01 0.896E+01   0.994E+00 -.884E-01 -.160E+00   -.228E-03 0.102E-03 0.240E-03
   -.175E+02 0.147E+02 0.230E+02   0.173E+02 -.144E+02 -.226E+02   0.896E+00 -.884E+00 -.874E+00   -.281E-04 -.239E-04 0.203E-03
   -.565E+02 -.101E+02 -.352E+02   0.561E+02 0.105E+02 0.353E+02   0.124E+01 -.914E-01 0.284E+00   -.497E-04 0.189E-03 0.177E-03
   0.189E+02 -.228E+02 0.326E+02   -.184E+02 0.233E+02 -.326E+02   -.921E+00 -.380E+00 -.985E+00   0.181E-03 0.148E-03 -.340E-03
   0.333E+02 0.614E+01 0.220E+01   -.332E+02 -.664E+01 -.192E+01   -.182E+00 0.566E+00 -.622E+00   -.304E-04 -.353E-03 -.899E-04
   0.796E+01 -.255E+02 -.225E+02   -.802E+01 0.252E+02 0.223E+02   0.151E+00 0.563E-02 0.451E+00   0.105E-03 -.297E-03 -.126E-04
   -.250E+02 0.492E+02 -.425E+02   0.254E+02 -.486E+02 0.423E+02   -.365E+00 -.158E+01 0.110E+01   0.251E-03 0.273E-04 0.108E-04
   -.299E+02 -.266E+02 0.463E+02   0.297E+02 0.263E+02 -.462E+02   0.621E+00 0.656E+00 -.651E+00   -.147E-03 -.306E-03 -.808E-04
   0.213E+02 0.715E+01 0.582E+02   -.210E+02 -.686E+01 -.581E+02   -.533E+00 -.477E+00 -.585E+00   0.167E-03 0.295E-03 -.136E-03
   -.279E+01 0.211E+02 -.268E+02   0.276E+01 -.210E+02 0.270E+02   -.817E-01 -.588E+00 0.123E+00   0.229E-03 -.289E-03 0.432E-03
   -.321E+01 -.734E+02 -.959E+01   0.298E+01 0.730E+02 0.899E+01   0.173E+00 0.155E+01 0.863E+00   -.325E-03 0.298E-04 -.461E-03
   -.180E+02 0.127E+02 -.404E+02   0.184E+02 -.131E+02 0.400E+02   -.156E+00 0.444E+00 0.885E+00   0.322E-03 -.300E-03 -.146E-03
   -.196E+02 -.696E+02 -.185E+02   0.197E+02 0.694E+02 0.188E+02   0.306E+00 0.109E+01 -.319E+00   0.291E-03 0.267E-03 0.180E-03
   0.556E+02 0.359E+02 -.458E+02   -.557E+02 -.357E+02 0.455E+02   -.688E+00 -.756E+00 0.719E+00   -.221E-03 0.147E-03 0.116E-03
   -.331E+02 -.206E+02 -.145E+02   0.327E+02 0.210E+02 0.147E+02   0.696E+00 -.390E+00 0.486E-02   -.230E-03 0.384E-03 0.108E-03
   -.492E+02 -.634E+01 0.718E+01   0.490E+02 0.638E+01 -.743E+01   0.602E+00 0.222E+00 0.354E+00   -.105E-03 0.226E-03 -.286E-03
   0.213E+02 -.604E+02 0.170E+02   -.208E+02 0.602E+02 -.175E+02   -.689E+00 0.850E+00 0.403E+00   0.348E-03 0.229E-03 -.385E-03
   0.184E+02 0.602E+02 0.217E+01   -.188E+02 -.602E+02 -.194E+01   0.209E+00 -.636E+00 -.459E+00   -.279E-03 -.689E-04 -.140E-04
   -.380E+01 -.203E+01 -.195E+02   0.405E+01 0.204E+01 0.192E+02   -.337E+00 0.270E+00 0.876E+00   0.560E-04 -.108E-03 0.181E-04
   0.163E+02 0.175E+02 -.206E+02   -.165E+02 -.179E+02 0.204E+02   -.945E-02 -.912E-01 0.666E+00   -.254E-03 -.279E-03 0.118E-03
   0.186E+02 0.112E+02 0.226E+02   -.187E+02 -.112E+02 -.227E+02   -.802E-01 -.523E-01 -.130E+00   -.127E-03 -.191E-04 -.432E-04
   -.385E+01 0.411E+02 0.484E+02   0.358E+01 -.409E+02 -.485E+02   0.654E+00 -.712E+00 -.298E+00   -.743E-04 -.730E-04 -.388E-03
   0.386E+02 -.671E+02 0.128E+02   -.388E+02 0.667E+02 -.128E+02   -.345E+00 0.205E+01 0.144E-01   0.341E-04 0.256E-03 -.788E-04
   0.721E+00 -.113E+02 -.277E+01   -.865E+00 0.111E+02 0.291E+01   0.643E+00 0.543E+00 -.709E-01   0.199E-03 -.826E-04 0.955E-04
   -.618E+01 -.149E+02 -.189E+02   0.594E+01 0.145E+02 0.190E+02   0.421E+00 0.110E+01 0.170E+00   -.533E-04 0.111E-03 0.214E-03
   0.487E+02 0.310E+02 0.716E+02   -.482E+02 -.312E+02 -.708E+02   -.123E+01 -.568E+00 -.221E+01   0.110E-03 -.123E-03 0.331E-03
   0.186E+02 0.881E+01 -.134E+02   -.187E+02 -.900E+01 0.131E+02   0.391E+00 0.437E+00 0.335E+00   0.118E-03 0.119E-03 -.152E-03
   0.784E+02 -.827E+01 0.536E+01   -.786E+02 0.804E+01 -.530E+01   -.402E+00 0.489E+00 -.366E+00   -.366E-04 -.870E-04 -.160E-03
   0.187E-01 0.493E+02 -.233E+02   -.360E+00 -.494E+02 0.229E+02   0.629E+00 -.303E+00 0.809E+00   0.471E-04 -.806E-04 -.161E-03
   0.101E+03 -.662E+01 0.594E+02   -.100E+03 0.618E+01 -.594E+02   -.234E+01 0.932E+00 -.116E+01   -.223E-04 -.585E-04 -.310E-03
   0.456E+02 -.343E+02 0.183E+02   -.455E+02 0.338E+02 -.178E+02   -.566E+00 0.152E+01 -.109E+01   0.107E-03 -.541E-04 0.249E-03
   -.299E+01 -.114E+02 0.294E+02   0.262E+01 0.117E+02 -.288E+02   0.776E+00 -.376E+00 -.100E+01   0.177E-03 0.346E-03 0.293E-03
   -.601E+01 0.236E+02 0.129E+01   0.584E+01 -.230E+02 -.129E+01   0.285E+00 -.100E+01 0.189E+00   0.127E-03 0.412E-03 0.239E-03
   0.414E+02 0.227E+02 -.668E+02   -.418E+02 -.233E+02 0.669E+02   0.411E+00 0.552E+00 0.741E+00   -.435E-03 -.492E-03 0.321E-03
   0.488E+02 0.260E+02 0.408E+02   -.486E+02 -.264E+02 -.413E+02   -.569E+00 -.198E+00 0.883E-01   0.133E-03 -.451E-03 -.395E-03
   0.680E+02 -.970E+02 -.404E+02   -.680E+02 0.965E+02 0.404E+02   -.133E+01 0.174E+01 0.113E+01   -.105E-03 -.183E-03 0.133E-03
   -.253E+02 -.104E+02 -.339E+02   0.249E+02 0.100E+02 0.340E+02   0.998E+00 0.672E+00 0.877E+00   0.876E-04 -.404E-03 0.377E-03
   -.525E+02 -.574E+02 0.220E+02   0.521E+02 0.578E+02 -.218E+02   0.174E+01 0.262E-01 -.695E+00   0.334E-04 0.228E-03 -.305E-04
   0.381E+02 0.201E+02 -.699E+01   -.381E+02 -.200E+02 0.726E+01   -.144E+00 -.653E+00 -.245E+00   0.186E-03 -.332E-03 0.151E-03
   0.348E+02 -.386E+02 -.116E+02   -.345E+02 0.384E+02 0.114E+02   -.501E+00 0.397E+00 0.364E+00   0.325E-03 -.198E-03 -.178E-03
   0.557E+02 -.953E+02 0.443E+02   -.560E+02 0.955E+02 -.438E+02   -.117E+01 0.173E+01 -.178E+01   -.111E-03 0.223E-03 0.876E-04
   -.149E+02 -.629E+02 -.215E+00   0.149E+02 0.623E+02 0.160E+00   0.290E+00 0.125E+01 0.282E-02   0.173E-03 -.500E-03 -.841E-04
   0.885E+02 -.185E+02 -.607E+02   -.879E+02 0.188E+02 0.608E+02   -.154E+01 -.176E+00 0.774E+00   0.316E-03 0.180E-03 0.475E-03
   0.189E+02 -.244E+01 0.878E+02   -.191E+02 0.261E+01 -.871E+02   0.490E-01 -.295E+00 -.198E+01   0.409E-04 -.724E-04 0.389E-04
   0.106E+03 0.185E+02 0.737E+01   -.105E+03 -.181E+02 -.774E+01   -.279E+01 -.760E+00 0.796E-01   -.331E-04 -.174E-04 -.320E-03
   0.964E+01 -.747E+01 -.535E+01   -.999E+01 0.840E+01 0.557E+01   0.503E+00 -.143E+01 -.319E+00   -.233E-04 0.369E-03 0.190E-03
   0.155E+02 0.677E+01 -.389E+02   -.158E+02 -.630E+01 0.388E+02   0.293E+00 -.495E+00 0.611E+00   -.568E-04 0.204E-03 0.112E-03
   0.689E+02 0.646E+02 -.439E+02   -.688E+02 -.652E+02 0.442E+02   -.720E+00 0.816E-02 -.104E-01   -.650E-04 -.627E-03 0.318E-03
   0.488E+02 -.419E+01 -.394E+02   -.481E+02 0.404E+01 0.393E+02   -.170E+01 0.414E+00 0.879E+00   0.195E-03 -.129E-03 0.122E-03
   -.302E+02 0.360E+02 0.296E+02   0.300E+02 -.363E+02 -.298E+02   0.131E+01 -.454E+00 -.229E+00   -.624E-04 -.141E-03 -.396E-03
   0.328E+02 -.381E+02 -.580E+00   -.325E+02 0.380E+02 0.192E+00   -.330E+00 0.239E+00 0.388E+00   0.373E-03 -.123E-03 -.321E-03
   0.273E+02 0.875E+02 0.325E+01   -.276E+02 -.873E+02 -.338E+01   0.261E+00 -.103E+01 0.305E+00   -.431E-04 -.355E-03 0.166E-05
   0.702E+02 -.335E+02 -.772E+01   -.699E+02 0.333E+02 0.740E+01   -.124E+01 0.773E+00 0.551E+00   -.229E-03 -.101E-04 -.725E-04
   0.327E+02 0.371E+02 0.747E+01   -.325E+02 -.374E+02 -.719E+01   -.561E+00 0.486E-01 -.630E+00   0.187E-03 -.334E-03 0.104E-03
   -.200E+02 -.483E+02 -.752E+01   0.195E+02 0.478E+02 0.724E+01   0.117E+01 0.147E+01 0.544E+00   0.690E-04 0.861E-04 -.155E-03
   -.246E+02 0.491E+02 0.212E+02   0.242E+02 -.493E+02 -.217E+02   0.927E+00 -.294E+00 0.674E+00   0.169E-03 -.504E-03 -.443E-03
   0.458E+02 -.713E+01 0.154E+02   -.452E+02 0.676E+01 -.153E+02   -.118E+01 0.399E+00 -.357E-01   -.870E-05 -.222E-03 0.908E-04
   0.946E+01 0.493E+02 -.920E+01   -.974E+01 -.491E+02 0.900E+01   0.524E+00 -.758E+00 0.235E+00   -.132E-03 -.117E-03 -.104E-03
 -----------------------------------------------------------------------------------------------
   0.174E+00 -.115E+00 -.306E+00   0.446E-11 0.362E-12 0.298E-12   -.186E+00 0.103E+00 0.311E+00   0.168E-03 -.347E-05 -.971E-04
 
 
 POSITION                                       TOTAL-FORCE (eV/Angst)
 -----------------------------------------------------------------------------------
      0.06940      0.57904      1.84144         0.348772      0.360762     -0.301566
      0.37242      2.73232      3.93787        -0.135880      0.126283     -0.134053
      2.47981      0.92561      3.95824        -0.185063     -0.406415     -0.534518
      2.16860      3.10371      1.77648         0.029971     -1.237254      0.352707
      0.38183      1.08226      6.16955        -0.097006     -0.366259      0.000658
      0.15046      3.19129      8.02504         2.385889     -1.998507      0.167470
      2.37246      1.14152      8.10504         0.211937     -0.374499      0.191241
      2.50620      3.13694      5.80230        -0.863356     -0.792644      0.775638
      0.37183      0.99434     10.00855        -0.199085     -0.745737     -0.126350
      0.08606      2.66052     12.07708        -0.020324      0.700055      0.625345
      2.29561      0.95919     12.19389         0.037274     -0.474328     -0.415465
      2.31692      3.13525     10.08554         0.273529     -0.333258     -0.008115
      0.06356      4.88592      1.77747         0.749539     -0.003499      1.469149
      0.10813      7.12088      3.80272         0.397306     -0.341134      0.298387
      2.10892      5.05668      3.84528         0.420913     -0.198300      0.147791
      2.34340      7.00347      2.07980        -0.506724      0.491815     -0.898271
      0.28233      4.89765      5.89433        -0.022329      0.775692      0.018881
      0.08005      7.00412      8.00446         0.531312     -0.526364      0.103298
      2.32251      5.16662      8.10714        -0.270612     -0.148595     -0.727855
      2.31616      7.13883      5.94885        -0.375374     -0.104573      0.304972
      0.06950      4.77619     10.16039         1.157794      1.174050      0.463148
      0.21471      6.96363      0.04908         0.249775      1.134174     -0.355376
      2.27708      5.06355     12.12042        -0.164076     -0.045320     -0.539257
      2.12416      7.07989     10.02921         0.051656      0.279166      0.587760
      0.16489      9.57647      2.05909         0.602559     -0.593056     -0.291489
      0.28419     11.55000      4.11572         0.179142     -0.929291      0.205736
      2.24709      9.19908      4.00504        -0.109157      0.314350     -0.186189
      2.40736     11.28202      1.94910        -0.247153     -0.191962     -0.326533
      0.20816      9.10025      6.02149         0.408188      0.086711     -0.264211
      0.24054     11.29544      8.20130        -0.090457      0.293425     -0.311980
      2.17533      9.18691      8.12542         0.356634     -0.566342     -0.827818
      2.16687     11.49361      6.15499         0.760772     -1.132064     -0.155622
      0.13284      9.23067     10.03844        -0.215215     -1.156009     -0.071484
      0.08684     11.06998     11.95143         0.154755      1.521545      0.425075
      2.10354      9.09061     12.18992         0.388888     -0.480548      0.303182
      2.36757     10.98555     10.18821         0.032188      1.023593      0.042461
      4.43232      0.85626      1.74188         0.320561      0.319200      0.236933
      4.42338      2.82821      3.88875         0.453499      0.144161     -0.104063
      6.52710      0.82563      3.98801        -0.452667     -0.367449     -0.351583
      6.53857      3.02470      2.02049         0.182689     -0.877499     -0.537043
      4.40847      0.87888      5.99803         0.335758      0.016524      0.361782
      4.31785      3.04499      7.97985         0.941562      0.086689      0.265892
      6.53902      0.92870      8.21023        -0.564614      0.141560     -0.207831
      6.57761      2.91501      5.98757        -0.456603      0.088856      0.413690
      4.43117      0.65923     10.20361        -0.460821      0.907423     -0.639831
      4.43713      2.96953     11.86183         0.166343     -0.030922      0.121901
      6.57535      0.96272     12.06283        -0.378281      0.087335      0.290269
      6.63589      3.10864     10.11531        -0.113283     -0.214678      0.113727
      4.36038      4.66453      1.82966         0.188987      1.254059      0.131772
      4.39014      7.07826      3.95912        -0.373796     -0.097737      0.446856
      6.36142      4.95404      3.98334         0.289521      0.006164      0.062179
      6.37045      7.09987      2.10647         0.685132     -0.536425     -0.512183
      4.28200      5.09359      5.92207         0.851270      0.340387      0.325037
      4.57301      7.15380      7.96222        -0.427619      0.042122     -0.910325
      6.63867      4.93135      8.05020        -0.112837      0.070719     -0.349258
      6.59750      6.93654      5.92517         0.088126     -0.250956      0.236677
      4.47377      5.28685      9.89189        -0.016087     -0.995515      0.841208
      4.28142      6.89515     12.19182         0.480518      0.363036     -0.493405
      6.60536      5.11679      0.02570        -0.194819     -0.174803     -0.476995
      6.62850      7.03414     10.04519        -0.107435     -0.539227      0.322125
      4.31560      8.92604      1.79715        -0.064692      1.190808      0.261895
      4.46963     11.11776      3.77441         0.259330      0.040993      0.479072
      6.44444      9.00620      4.11955         0.362626      0.919003     -0.003386
      6.51884     11.22245      1.80011        -0.723451     -0.498216      0.408342
      4.23418      9.25775      5.98468         0.298213      0.056341      0.154627
      4.25470     11.16314      8.04045         0.396327      0.256004      0.100286
      6.69367      8.97022      7.85428        -0.185204      0.641456     -0.100443
      6.40678     11.28496      6.11114        -0.139578     -0.578852     -0.227395
      4.45252      8.95243      9.97849        -0.093391      0.276784      0.539311
      4.42720     11.07727     12.07717        -0.162723     -0.403183      0.529143
      6.44662      8.99017     12.12767        -0.175625     -0.056300     -0.200324
      6.38114     11.11879     10.03228         0.385038     -0.594226     -0.418824
      8.55962      0.57181      1.93521        -0.518412      1.711907     -0.037367
      8.54837      2.75421      3.95839         0.503414      0.277566      0.068336
     10.58184      0.64228      4.05576         0.189327      0.723184      0.250259
     10.85862      2.73219      2.21435        -0.712330     -0.701060     -1.358682
      8.52823      0.80014      6.01412         0.254533      0.245030      0.103869
      8.68146      2.79267      8.09950        -0.560852      0.254596     -0.308201
     10.66849      0.84435      7.95125         0.291230     -0.448607      0.418250
     10.96178      2.80915      6.06275        -1.710468      0.486759     -1.134241
      8.59082      0.61749     10.19565        -0.359224      1.066852     -0.576027
      8.59579      2.90690      0.06230         0.412116     -0.057917     -0.455660
     10.56938      0.82734     12.14740         0.118017     -0.362644      0.183490
     10.61298      2.67859     10.05672        -0.037739     -0.074774      0.867194
      8.76399      4.87256      1.92693        -0.420219     -0.602287     -0.409326
      8.73290      6.68792      3.88731        -1.324136      1.193737      1.112488
     10.70126      4.74802      3.89637         0.647287      0.272423      0.991733
     10.54883      7.04917      2.02810         1.402178      0.384473     -0.517528
      8.70799      4.83387      6.02392        -0.163925     -0.608662      0.022086
      8.80551      6.86680      7.96379        -0.230937      0.236287      0.190515
     10.77539      4.75379      8.26389        -1.541310      1.924622     -1.286641
     10.74596      6.72880      5.93244         0.345498      0.563925     -0.050450
      8.86624      5.00935     10.13226        -0.948349      0.083728      0.868743
      8.58605      7.09484      0.20581        -0.200655     -0.121427     -1.327321
     10.91215      5.00967     12.12173        -2.264652     -0.406317     -0.293433
     10.69991      7.20867     10.20790         0.159367     -0.495849     -0.096988
      8.46289      9.15330      2.00627         0.047157     -0.023211      0.487364
      8.61618     11.09766      4.11898        -0.630315     -0.626535      0.256223
     10.89272      9.15263      3.91927        -1.067151      0.258113      0.757558
     10.42412     11.16161      1.94212         1.030702     -0.704530     -0.455428
      8.80081      8.90813      5.88806        -0.041994      0.126222     -0.006326
      8.56163     11.24514      7.96484         0.035768     -0.879399      0.175019
     10.81958      8.99428      7.95667        -0.916580      0.483851      0.239017
     10.85617     11.15655      6.14778        -0.337761     -0.220189     -0.355811
      8.51868      8.92076      9.96152         0.637830      1.000517      0.265273
      8.41972     11.01241     11.99305         0.599043     -0.523669      0.165582
     10.80414      9.06850     12.23523        -0.635311      0.020361      0.093894
     10.59553     11.22158     10.00195         0.239899     -0.626373      0.035953
 -----------------------------------------------------------------------------------
    total drift:                               -0.012127     -0.011756      0.004657


--------------------------------------------------------------------------------------------------------



  FREE ENERGIE OF THE ION-ELECTRON SYSTEM (eV)
  ---------------------------------------------------
  free  energy   TOTEN  =      -409.28303453 eV

  energy  without entropy=     -409.23936920  energy(sigma->0) =     -409.26120187
 


--------------------------------------------------------------------------------------------------------


    POTLOK:  cpu time      1.3754: real time      1.3770


--------------------------------------------------------------------------------------------------------


 stress matrix after NEB project (eV)
     -4.25851     -1.77203      0.28036
     -1.77203     -5.47010      0.23799
      0.28036      0.23799     -0.98545
  FORCES: max atom, RMS     3.116816    1.019649
  FORCE total and by dimension   10.596501    2.385889
  Stress total and by dimension    7.455114    5.470103
     LOOP+:  cpu time   5560.1193: real time   5563.5896
    4ORBIT:  cpu time      0.0000: real time      0.0000

 total amount of memory used by VASP MPI-rank0   650531. kBytes
=======================================================================

   base      :      30000. kBytes
   nonlr-proj:      16922. kBytes
   fftplans  :      29476. kBytes
   grid      :      11352. kBytes
   one-center:        108. kBytes
   wavefun   :     562673. kBytes
 
  
  
 General timing and accounting informations for this job:
 ========================================================
  
                  Total CPU time used (sec):     5660.012
                            User time (sec):     5654.286
                          System time (sec):        5.726
                         Elapsed time (sec):     5664.301
  
                   Maximum memory used (kb):     1006640.
                   Average memory used (kb):          N/A
  
                          Minor page faults:       253608
                          Major page faults:            0
                 Voluntary context switches:        59003
